<?xml version="1.0" encoding="ISO-8859-1"?>
<modeling>
 <generator>
  <i name="program" type="string">vasp </i>
  <i name="version" type="string">5.3.5  </i>
  <i name="subversion" type="string">31Mar14 (build Mar 02 2015 18:14:16) complex                          parallel </i>
  <i name="platform" type="string">LinuxIFC </i>
  <i name="date" type="string">2018 08 08 </i>
  <i name="time" type="string">18:28:02 </i>
 </generator>
 <incar>
  <i type="string" name="SYSTEM">  gr</i>
  <i type="string" name="PREC">accurate : accuracy</i>
  <i type="string" name="ALGO"> FAST.</i>
  <i type="int" name="NELM">   100</i>
  <i type="int" name="NELMDL">    -3</i>
  <i type="int" name="NELMIN">     5</i>
  <i type="int" name="IBRION">     1</i>
  <i name="EDIFF">      0.00000000</i>
  <i name="EDIFFG">     -0.00000100</i>
  <i type="int" name="NSW">   400</i>
  <i type="int" name="ISIF">     2</i>
  <i name="ENCUT">   2000.00000000</i>
  <i type="int" name="ISMEAR">     0</i>
  <i name="SIGMA">      0.05000000</i>
  <i type="int" name="NWRITE">     2</i>
  <i type="logical" name="LWAVE"> F  </i>
  <i type="logical" name="LCHARG"> F  </i>
  <i type="int" name="NELM">   100</i>
 </incar>
 <kpoints>
  <generation param="Gamma">
   <v type="int" name="divisions">      24       36        1 </v>
   <v name="usershift">      0.00000000       0.00000000       0.00000000 </v>
   <v name="genvec1">      0.04166667       0.00000000       0.00000000 </v>
   <v name="genvec2">      0.00000000       0.02777778       0.00000000 </v>
   <v name="genvec3">      0.00000000       0.00000000       1.00000000 </v>
   <v name="shift">      0.00000000       0.00000000       0.00000000 </v>
  </generation>
  <varray name="kpointlist" >
   <v>       0.00000000       0.00000000       0.00000000 </v>
   <v>       0.04166667       0.00000000       0.00000000 </v>
   <v>       0.08333333       0.00000000       0.00000000 </v>
   <v>       0.12500000       0.00000000       0.00000000 </v>
   <v>       0.16666667       0.00000000       0.00000000 </v>
   <v>       0.20833333       0.00000000       0.00000000 </v>
   <v>       0.25000000       0.00000000       0.00000000 </v>
   <v>       0.29166667       0.00000000       0.00000000 </v>
   <v>       0.33333333       0.00000000       0.00000000 </v>
   <v>       0.37500000       0.00000000       0.00000000 </v>
   <v>       0.41666667       0.00000000       0.00000000 </v>
   <v>       0.45833333       0.00000000       0.00000000 </v>
   <v>       0.50000000       0.00000000       0.00000000 </v>
   <v>       0.00000000       0.02777778       0.00000000 </v>
   <v>       0.04166667       0.02777778       0.00000000 </v>
   <v>       0.08333333       0.02777778       0.00000000 </v>
   <v>       0.12500000       0.02777778       0.00000000 </v>
   <v>       0.16666667       0.02777778       0.00000000 </v>
   <v>       0.20833333       0.02777778       0.00000000 </v>
   <v>       0.25000000       0.02777778       0.00000000 </v>
   <v>       0.29166667       0.02777778       0.00000000 </v>
   <v>       0.33333333       0.02777778       0.00000000 </v>
   <v>       0.37500000       0.02777778       0.00000000 </v>
   <v>       0.41666667       0.02777778       0.00000000 </v>
   <v>       0.45833333       0.02777778       0.00000000 </v>
   <v>       0.50000000       0.02777778       0.00000000 </v>
   <v>       0.00000000       0.05555556       0.00000000 </v>
   <v>       0.04166667       0.05555556       0.00000000 </v>
   <v>       0.08333333       0.05555556       0.00000000 </v>
   <v>       0.12500000       0.05555556       0.00000000 </v>
   <v>       0.16666667       0.05555556       0.00000000 </v>
   <v>       0.20833333       0.05555556       0.00000000 </v>
   <v>       0.25000000       0.05555556       0.00000000 </v>
   <v>       0.29166667       0.05555556       0.00000000 </v>
   <v>       0.33333333       0.05555556       0.00000000 </v>
   <v>       0.37500000       0.05555556       0.00000000 </v>
   <v>       0.41666667       0.05555556       0.00000000 </v>
   <v>       0.45833333       0.05555556       0.00000000 </v>
   <v>       0.50000000       0.05555556       0.00000000 </v>
   <v>       0.00000000       0.08333333       0.00000000 </v>
   <v>       0.04166667       0.08333333       0.00000000 </v>
   <v>       0.08333333       0.08333333       0.00000000 </v>
   <v>       0.12500000       0.08333333       0.00000000 </v>
   <v>       0.16666667       0.08333333       0.00000000 </v>
   <v>       0.20833333       0.08333333       0.00000000 </v>
   <v>       0.25000000       0.08333333       0.00000000 </v>
   <v>       0.29166667       0.08333333       0.00000000 </v>
   <v>       0.33333333       0.08333333       0.00000000 </v>
   <v>       0.37500000       0.08333333       0.00000000 </v>
   <v>       0.41666667       0.08333333       0.00000000 </v>
   <v>       0.45833333       0.08333333       0.00000000 </v>
   <v>       0.50000000       0.08333333       0.00000000 </v>
   <v>       0.00000000       0.11111111       0.00000000 </v>
   <v>       0.04166667       0.11111111       0.00000000 </v>
   <v>       0.08333333       0.11111111       0.00000000 </v>
   <v>       0.12500000       0.11111111       0.00000000 </v>
   <v>       0.16666667       0.11111111       0.00000000 </v>
   <v>       0.20833333       0.11111111       0.00000000 </v>
   <v>       0.25000000       0.11111111       0.00000000 </v>
   <v>       0.29166667       0.11111111       0.00000000 </v>
   <v>       0.33333333       0.11111111       0.00000000 </v>
   <v>       0.37500000       0.11111111       0.00000000 </v>
   <v>       0.41666667       0.11111111       0.00000000 </v>
   <v>       0.45833333       0.11111111       0.00000000 </v>
   <v>       0.50000000       0.11111111       0.00000000 </v>
   <v>       0.00000000       0.13888889       0.00000000 </v>
   <v>       0.04166667       0.13888889       0.00000000 </v>
   <v>       0.08333333       0.13888889       0.00000000 </v>
   <v>       0.12500000       0.13888889       0.00000000 </v>
   <v>       0.16666667       0.13888889       0.00000000 </v>
   <v>       0.20833333       0.13888889       0.00000000 </v>
   <v>       0.25000000       0.13888889       0.00000000 </v>
   <v>       0.29166667       0.13888889       0.00000000 </v>
   <v>       0.33333333       0.13888889       0.00000000 </v>
   <v>       0.37500000       0.13888889       0.00000000 </v>
   <v>       0.41666667       0.13888889       0.00000000 </v>
   <v>       0.45833333       0.13888889       0.00000000 </v>
   <v>       0.50000000       0.13888889       0.00000000 </v>
   <v>       0.00000000       0.16666667       0.00000000 </v>
   <v>       0.04166667       0.16666667       0.00000000 </v>
   <v>       0.08333333       0.16666667       0.00000000 </v>
   <v>       0.12500000       0.16666667       0.00000000 </v>
   <v>       0.16666667       0.16666667       0.00000000 </v>
   <v>       0.20833333       0.16666667       0.00000000 </v>
   <v>       0.25000000       0.16666667       0.00000000 </v>
   <v>       0.29166667       0.16666667       0.00000000 </v>
   <v>       0.33333333       0.16666667       0.00000000 </v>
   <v>       0.37500000       0.16666667       0.00000000 </v>
   <v>       0.41666667       0.16666667       0.00000000 </v>
   <v>       0.45833333       0.16666667       0.00000000 </v>
   <v>       0.50000000       0.16666667       0.00000000 </v>
   <v>       0.00000000       0.19444444       0.00000000 </v>
   <v>       0.04166667       0.19444444       0.00000000 </v>
   <v>       0.08333333       0.19444444       0.00000000 </v>
   <v>       0.12500000       0.19444444       0.00000000 </v>
   <v>       0.16666667       0.19444444       0.00000000 </v>
   <v>       0.20833333       0.19444444       0.00000000 </v>
   <v>       0.25000000       0.19444444       0.00000000 </v>
   <v>       0.29166667       0.19444444       0.00000000 </v>
   <v>       0.33333333       0.19444444       0.00000000 </v>
   <v>       0.37500000       0.19444444       0.00000000 </v>
   <v>       0.41666667       0.19444444       0.00000000 </v>
   <v>       0.45833333       0.19444444       0.00000000 </v>
   <v>       0.50000000       0.19444444       0.00000000 </v>
   <v>       0.00000000       0.22222222       0.00000000 </v>
   <v>       0.04166667       0.22222222       0.00000000 </v>
   <v>       0.08333333       0.22222222       0.00000000 </v>
   <v>       0.12500000       0.22222222       0.00000000 </v>
   <v>       0.16666667       0.22222222       0.00000000 </v>
   <v>       0.20833333       0.22222222       0.00000000 </v>
   <v>       0.25000000       0.22222222       0.00000000 </v>
   <v>       0.29166667       0.22222222       0.00000000 </v>
   <v>       0.33333333       0.22222222       0.00000000 </v>
   <v>       0.37500000       0.22222222       0.00000000 </v>
   <v>       0.41666667       0.22222222       0.00000000 </v>
   <v>       0.45833333       0.22222222       0.00000000 </v>
   <v>       0.50000000       0.22222222       0.00000000 </v>
   <v>       0.00000000       0.25000000       0.00000000 </v>
   <v>       0.04166667       0.25000000       0.00000000 </v>
   <v>       0.08333333       0.25000000       0.00000000 </v>
   <v>       0.12500000       0.25000000       0.00000000 </v>
   <v>       0.16666667       0.25000000       0.00000000 </v>
   <v>       0.20833333       0.25000000       0.00000000 </v>
   <v>       0.25000000       0.25000000       0.00000000 </v>
   <v>       0.29166667       0.25000000       0.00000000 </v>
   <v>       0.33333333       0.25000000       0.00000000 </v>
   <v>       0.37500000       0.25000000       0.00000000 </v>
   <v>       0.41666667       0.25000000       0.00000000 </v>
   <v>       0.45833333       0.25000000       0.00000000 </v>
   <v>       0.50000000       0.25000000       0.00000000 </v>
   <v>       0.00000000       0.27777778       0.00000000 </v>
   <v>       0.04166667       0.27777778       0.00000000 </v>
   <v>       0.08333333       0.27777778       0.00000000 </v>
   <v>       0.12500000       0.27777778       0.00000000 </v>
   <v>       0.16666667       0.27777778       0.00000000 </v>
   <v>       0.20833333       0.27777778       0.00000000 </v>
   <v>       0.25000000       0.27777778       0.00000000 </v>
   <v>       0.29166667       0.27777778       0.00000000 </v>
   <v>       0.33333333       0.27777778       0.00000000 </v>
   <v>       0.37500000       0.27777778       0.00000000 </v>
   <v>       0.41666667       0.27777778       0.00000000 </v>
   <v>       0.45833333       0.27777778       0.00000000 </v>
   <v>       0.50000000       0.27777778       0.00000000 </v>
   <v>       0.00000000       0.30555556       0.00000000 </v>
   <v>       0.04166667       0.30555556       0.00000000 </v>
   <v>       0.08333333       0.30555556       0.00000000 </v>
   <v>       0.12500000       0.30555556       0.00000000 </v>
   <v>       0.16666667       0.30555556       0.00000000 </v>
   <v>       0.20833333       0.30555556       0.00000000 </v>
   <v>       0.25000000       0.30555556       0.00000000 </v>
   <v>       0.29166667       0.30555556       0.00000000 </v>
   <v>       0.33333333       0.30555556       0.00000000 </v>
   <v>       0.37500000       0.30555556       0.00000000 </v>
   <v>       0.41666667       0.30555556       0.00000000 </v>
   <v>       0.45833333       0.30555556       0.00000000 </v>
   <v>       0.50000000       0.30555556       0.00000000 </v>
   <v>       0.00000000       0.33333333       0.00000000 </v>
   <v>       0.04166667       0.33333333       0.00000000 </v>
   <v>       0.08333333       0.33333333       0.00000000 </v>
   <v>       0.12500000       0.33333333       0.00000000 </v>
   <v>       0.16666667       0.33333333       0.00000000 </v>
   <v>       0.20833333       0.33333333       0.00000000 </v>
   <v>       0.25000000       0.33333333       0.00000000 </v>
   <v>       0.29166667       0.33333333       0.00000000 </v>
   <v>       0.33333333       0.33333333       0.00000000 </v>
   <v>       0.37500000       0.33333333       0.00000000 </v>
   <v>       0.41666667       0.33333333       0.00000000 </v>
   <v>       0.45833333       0.33333333       0.00000000 </v>
   <v>       0.50000000       0.33333333       0.00000000 </v>
   <v>       0.00000000       0.36111111       0.00000000 </v>
   <v>       0.04166667       0.36111111       0.00000000 </v>
   <v>       0.08333333       0.36111111       0.00000000 </v>
   <v>       0.12500000       0.36111111       0.00000000 </v>
   <v>       0.16666667       0.36111111       0.00000000 </v>
   <v>       0.20833333       0.36111111       0.00000000 </v>
   <v>       0.25000000       0.36111111       0.00000000 </v>
   <v>       0.29166667       0.36111111       0.00000000 </v>
   <v>       0.33333333       0.36111111       0.00000000 </v>
   <v>       0.37500000       0.36111111       0.00000000 </v>
   <v>       0.41666667       0.36111111       0.00000000 </v>
   <v>       0.45833333       0.36111111       0.00000000 </v>
   <v>       0.50000000       0.36111111       0.00000000 </v>
   <v>       0.00000000       0.38888889       0.00000000 </v>
   <v>       0.04166667       0.38888889       0.00000000 </v>
   <v>       0.08333333       0.38888889       0.00000000 </v>
   <v>       0.12500000       0.38888889       0.00000000 </v>
   <v>       0.16666667       0.38888889       0.00000000 </v>
   <v>       0.20833333       0.38888889       0.00000000 </v>
   <v>       0.25000000       0.38888889       0.00000000 </v>
   <v>       0.29166667       0.38888889       0.00000000 </v>
   <v>       0.33333333       0.38888889       0.00000000 </v>
   <v>       0.37500000       0.38888889       0.00000000 </v>
   <v>       0.41666667       0.38888889       0.00000000 </v>
   <v>       0.45833333       0.38888889       0.00000000 </v>
   <v>       0.50000000       0.38888889       0.00000000 </v>
   <v>       0.00000000       0.41666667       0.00000000 </v>
   <v>       0.04166667       0.41666667       0.00000000 </v>
   <v>       0.08333333       0.41666667       0.00000000 </v>
   <v>       0.12500000       0.41666667       0.00000000 </v>
   <v>       0.16666667       0.41666667       0.00000000 </v>
   <v>       0.20833333       0.41666667       0.00000000 </v>
   <v>       0.25000000       0.41666667       0.00000000 </v>
   <v>       0.29166667       0.41666667       0.00000000 </v>
   <v>       0.33333333       0.41666667       0.00000000 </v>
   <v>       0.37500000       0.41666667       0.00000000 </v>
   <v>       0.41666667       0.41666667       0.00000000 </v>
   <v>       0.45833333       0.41666667       0.00000000 </v>
   <v>       0.50000000       0.41666667       0.00000000 </v>
   <v>       0.00000000       0.44444444       0.00000000 </v>
   <v>       0.04166667       0.44444444       0.00000000 </v>
   <v>       0.08333333       0.44444444       0.00000000 </v>
   <v>       0.12500000       0.44444444       0.00000000 </v>
   <v>       0.16666667       0.44444444       0.00000000 </v>
   <v>       0.20833333       0.44444444       0.00000000 </v>
   <v>       0.25000000       0.44444444       0.00000000 </v>
   <v>       0.29166667       0.44444444       0.00000000 </v>
   <v>       0.33333333       0.44444444       0.00000000 </v>
   <v>       0.37500000       0.44444444       0.00000000 </v>
   <v>       0.41666667       0.44444444       0.00000000 </v>
   <v>       0.45833333       0.44444444       0.00000000 </v>
   <v>       0.50000000       0.44444444       0.00000000 </v>
   <v>       0.00000000       0.47222222       0.00000000 </v>
   <v>       0.04166667       0.47222222       0.00000000 </v>
   <v>       0.08333333       0.47222222       0.00000000 </v>
   <v>       0.12500000       0.47222222       0.00000000 </v>
   <v>       0.16666667       0.47222222       0.00000000 </v>
   <v>       0.20833333       0.47222222       0.00000000 </v>
   <v>       0.25000000       0.47222222       0.00000000 </v>
   <v>       0.29166667       0.47222222       0.00000000 </v>
   <v>       0.33333333       0.47222222       0.00000000 </v>
   <v>       0.37500000       0.47222222       0.00000000 </v>
   <v>       0.41666667       0.47222222       0.00000000 </v>
   <v>       0.45833333       0.47222222       0.00000000 </v>
   <v>       0.50000000       0.47222222       0.00000000 </v>
   <v>       0.00000000       0.50000000       0.00000000 </v>
   <v>       0.04166667       0.50000000       0.00000000 </v>
   <v>       0.08333333       0.50000000       0.00000000 </v>
   <v>       0.12500000       0.50000000       0.00000000 </v>
   <v>       0.16666667       0.50000000       0.00000000 </v>
   <v>       0.20833333       0.50000000       0.00000000 </v>
   <v>       0.25000000       0.50000000       0.00000000 </v>
   <v>       0.29166667       0.50000000       0.00000000 </v>
   <v>       0.33333333       0.50000000       0.00000000 </v>
   <v>       0.37500000       0.50000000       0.00000000 </v>
   <v>       0.41666667       0.50000000       0.00000000 </v>
   <v>       0.45833333       0.50000000       0.00000000 </v>
   <v>       0.50000000       0.50000000       0.00000000 </v>
  </varray>
  <varray name="weights" >
   <v>       0.00115741 </v>
   <v>       0.00231481 </v>
   <v>       0.00231481 </v>
   <v>       0.00231481 </v>
   <v>       0.00231481 </v>
   <v>       0.00231481 </v>
   <v>       0.00231481 </v>
   <v>       0.00231481 </v>
   <v>       0.00231481 </v>
   <v>       0.00231481 </v>
   <v>       0.00231481 </v>
   <v>       0.00231481 </v>
   <v>       0.00115741 </v>
   <v>       0.00231481 </v>
   <v>       0.00462963 </v>
   <v>       0.00462963 </v>
   <v>       0.00462963 </v>
   <v>       0.00462963 </v>
   <v>       0.00462963 </v>
   <v>       0.00462963 </v>
   <v>       0.00462963 </v>
   <v>       0.00462963 </v>
   <v>       0.00462963 </v>
   <v>       0.00462963 </v>
   <v>       0.00462963 </v>
   <v>       0.00231481 </v>
   <v>       0.00231481 </v>
   <v>       0.00462963 </v>
   <v>       0.00462963 </v>
   <v>       0.00462963 </v>
   <v>       0.00462963 </v>
   <v>       0.00462963 </v>
   <v>       0.00462963 </v>
   <v>       0.00462963 </v>
   <v>       0.00462963 </v>
   <v>       0.00462963 </v>
   <v>       0.00462963 </v>
   <v>       0.00462963 </v>
   <v>       0.00231481 </v>
   <v>       0.00231481 </v>
   <v>       0.00462963 </v>
   <v>       0.00462963 </v>
   <v>       0.00462963 </v>
   <v>       0.00462963 </v>
   <v>       0.00462963 </v>
   <v>       0.00462963 </v>
   <v>       0.00462963 </v>
   <v>       0.00462963 </v>
   <v>       0.00462963 </v>
   <v>       0.00462963 </v>
   <v>       0.00462963 </v>
   <v>       0.00231481 </v>
   <v>       0.00231481 </v>
   <v>       0.00462963 </v>
   <v>       0.00462963 </v>
   <v>       0.00462963 </v>
   <v>       0.00462963 </v>
   <v>       0.00462963 </v>
   <v>       0.00462963 </v>
   <v>       0.00462963 </v>
   <v>       0.00462963 </v>
   <v>       0.00462963 </v>
   <v>       0.00462963 </v>
   <v>       0.00462963 </v>
   <v>       0.00231481 </v>
   <v>       0.00231481 </v>
   <v>       0.00462963 </v>
   <v>       0.00462963 </v>
   <v>       0.00462963 </v>
   <v>       0.00462963 </v>
   <v>       0.00462963 </v>
   <v>       0.00462963 </v>
   <v>       0.00462963 </v>
   <v>       0.00462963 </v>
   <v>       0.00462963 </v>
   <v>       0.00462963 </v>
   <v>       0.00462963 </v>
   <v>       0.00231481 </v>
   <v>       0.00231481 </v>
   <v>       0.00462963 </v>
   <v>       0.00462963 </v>
   <v>       0.00462963 </v>
   <v>       0.00462963 </v>
   <v>       0.00462963 </v>
   <v>       0.00462963 </v>
   <v>       0.00462963 </v>
   <v>       0.00462963 </v>
   <v>       0.00462963 </v>
   <v>       0.00462963 </v>
   <v>       0.00462963 </v>
   <v>       0.00231481 </v>
   <v>       0.00231481 </v>
   <v>       0.00462963 </v>
   <v>       0.00462963 </v>
   <v>       0.00462963 </v>
   <v>       0.00462963 </v>
   <v>       0.00462963 </v>
   <v>       0.00462963 </v>
   <v>       0.00462963 </v>
   <v>       0.00462963 </v>
   <v>       0.00462963 </v>
   <v>       0.00462963 </v>
   <v>       0.00462963 </v>
   <v>       0.00231481 </v>
   <v>       0.00231481 </v>
   <v>       0.00462963 </v>
   <v>       0.00462963 </v>
   <v>       0.00462963 </v>
   <v>       0.00462963 </v>
   <v>       0.00462963 </v>
   <v>       0.00462963 </v>
   <v>       0.00462963 </v>
   <v>       0.00462963 </v>
   <v>       0.00462963 </v>
   <v>       0.00462963 </v>
   <v>       0.00462963 </v>
   <v>       0.00231481 </v>
   <v>       0.00231481 </v>
   <v>       0.00462963 </v>
   <v>       0.00462963 </v>
   <v>       0.00462963 </v>
   <v>       0.00462963 </v>
   <v>       0.00462963 </v>
   <v>       0.00462963 </v>
   <v>       0.00462963 </v>
   <v>       0.00462963 </v>
   <v>       0.00462963 </v>
   <v>       0.00462963 </v>
   <v>       0.00462963 </v>
   <v>       0.00231481 </v>
   <v>       0.00231481 </v>
   <v>       0.00462963 </v>
   <v>       0.00462963 </v>
   <v>       0.00462963 </v>
   <v>       0.00462963 </v>
   <v>       0.00462963 </v>
   <v>       0.00462963 </v>
   <v>       0.00462963 </v>
   <v>       0.00462963 </v>
   <v>       0.00462963 </v>
   <v>       0.00462963 </v>
   <v>       0.00462963 </v>
   <v>       0.00231481 </v>
   <v>       0.00231481 </v>
   <v>       0.00462963 </v>
   <v>       0.00462963 </v>
   <v>       0.00462963 </v>
   <v>       0.00462963 </v>
   <v>       0.00462963 </v>
   <v>       0.00462963 </v>
   <v>       0.00462963 </v>
   <v>       0.00462963 </v>
   <v>       0.00462963 </v>
   <v>       0.00462963 </v>
   <v>       0.00462963 </v>
   <v>       0.00231481 </v>
   <v>       0.00231481 </v>
   <v>       0.00462963 </v>
   <v>       0.00462963 </v>
   <v>       0.00462963 </v>
   <v>       0.00462963 </v>
   <v>       0.00462963 </v>
   <v>       0.00462963 </v>
   <v>       0.00462963 </v>
   <v>       0.00462963 </v>
   <v>       0.00462963 </v>
   <v>       0.00462963 </v>
   <v>       0.00462963 </v>
   <v>       0.00231481 </v>
   <v>       0.00231481 </v>
   <v>       0.00462963 </v>
   <v>       0.00462963 </v>
   <v>       0.00462963 </v>
   <v>       0.00462963 </v>
   <v>       0.00462963 </v>
   <v>       0.00462963 </v>
   <v>       0.00462963 </v>
   <v>       0.00462963 </v>
   <v>       0.00462963 </v>
   <v>       0.00462963 </v>
   <v>       0.00462963 </v>
   <v>       0.00231481 </v>
   <v>       0.00231481 </v>
   <v>       0.00462963 </v>
   <v>       0.00462963 </v>
   <v>       0.00462963 </v>
   <v>       0.00462963 </v>
   <v>       0.00462963 </v>
   <v>       0.00462963 </v>
   <v>       0.00462963 </v>
   <v>       0.00462963 </v>
   <v>       0.00462963 </v>
   <v>       0.00462963 </v>
   <v>       0.00462963 </v>
   <v>       0.00231481 </v>
   <v>       0.00231481 </v>
   <v>       0.00462963 </v>
   <v>       0.00462963 </v>
   <v>       0.00462963 </v>
   <v>       0.00462963 </v>
   <v>       0.00462963 </v>
   <v>       0.00462963 </v>
   <v>       0.00462963 </v>
   <v>       0.00462963 </v>
   <v>       0.00462963 </v>
   <v>       0.00462963 </v>
   <v>       0.00462963 </v>
   <v>       0.00231481 </v>
   <v>       0.00231481 </v>
   <v>       0.00462963 </v>
   <v>       0.00462963 </v>
   <v>       0.00462963 </v>
   <v>       0.00462963 </v>
   <v>       0.00462963 </v>
   <v>       0.00462963 </v>
   <v>       0.00462963 </v>
   <v>       0.00462963 </v>
   <v>       0.00462963 </v>
   <v>       0.00462963 </v>
   <v>       0.00462963 </v>
   <v>       0.00231481 </v>
   <v>       0.00231481 </v>
   <v>       0.00462963 </v>
   <v>       0.00462963 </v>
   <v>       0.00462963 </v>
   <v>       0.00462963 </v>
   <v>       0.00462963 </v>
   <v>       0.00462963 </v>
   <v>       0.00462963 </v>
   <v>       0.00462963 </v>
   <v>       0.00462963 </v>
   <v>       0.00462963 </v>
   <v>       0.00462963 </v>
   <v>       0.00231481 </v>
   <v>       0.00115741 </v>
   <v>       0.00231481 </v>
   <v>       0.00231481 </v>
   <v>       0.00231481 </v>
   <v>       0.00231481 </v>
   <v>       0.00231481 </v>
   <v>       0.00231481 </v>
   <v>       0.00231481 </v>
   <v>       0.00231481 </v>
   <v>       0.00231481 </v>
   <v>       0.00231481 </v>
   <v>       0.00231481 </v>
   <v>       0.00115741 </v>
  </varray>
 </kpoints>
 <parameters>
  <separator name="general" >
   <i type="string" name="SYSTEM">gr</i>
   <i type="logical" name="LCOMPAT"> F  </i>
  </separator>
  <separator name="electronic" >
   <i type="string" name="PREC">accura</i>
   <i name="ENMAX">   2000.00000000</i>
   <i name="ENAUG">    644.87300000</i>
   <i name="EDIFF">      0.00000000</i>
   <i type="int" name="IALGO">    68</i>
   <i type="int" name="IWAVPR">    11</i>
   <i type="int" name="NBANDS">    12</i>
   <i name="NELECT">     16.00000000</i>
   <i type="int" name="TURBO">     0</i>
   <i type="int" name="IRESTART">     0</i>
   <i type="int" name="NREBOOT">     0</i>
   <i type="int" name="NMIN">     0</i>
   <i name="EREF">      0.00000000</i>
   <separator name="electronic smearing" >
    <i type="int" name="ISMEAR">     0</i>
    <i name="SIGMA">      0.05000000</i>
    <i name="KSPACING">      0.50000000</i>
    <i type="logical" name="KGAMMA"> T  </i>
   </separator>
   <separator name="electronic projectors" >
    <i type="logical" name="LREAL"> F  </i>
    <v name="ROPT">      0.00000000</v>
    <i type="int" name="LMAXPAW">  -100</i>
    <i type="int" name="LMAXMIX">     2</i>
    <i type="logical" name="NLSPLINE"> F  </i>
   </separator>
   <separator name="electronic startup" >
    <i type="int" name="ISTART">     0</i>
    <i type="int" name="ICHARG">     2</i>
    <i type="int" name="INIWAV">     1</i>
   </separator>
   <separator name="electronic spin" >
    <i type="int" name="ISPIN">     1</i>
    <i type="logical" name="LNONCOLLINEAR"> F  </i>
    <v name="MAGMOM">      1.00000000      1.00000000      1.00000000      1.00000000</v>
    <i name="NUPDOWN">     -1.00000000</i>
    <i type="logical" name="LSORBIT"> F  </i>
    <v name="SAXIS">      0.00000000      0.00000000      1.00000000</v>
    <i type="logical" name="LSPIRAL"> F  </i>
    <v name="QSPIRAL">      0.00000000      0.00000000      0.00000000</v>
    <i type="logical" name="LZEROZ"> F  </i>
   </separator>
   <separator name="electronic exchange-correlation" >
    <i type="logical" name="LASPH"> F  </i>
    <i type="logical" name="LMETAGGA"> F  </i>
   </separator>
   <separator name="electronic convergence" >
    <i type="int" name="NELM">   100</i>
    <i type="int" name="NELMDL">    -3</i>
    <i type="int" name="NELMIN">     5</i>
    <i name="ENINI">   2000.00000000</i>
    <separator name="electronic convergence detail" >
     <i type="logical" name="LDIAG"> T  </i>
     <i type="logical" name="LSUBROT"> F  </i>
     <i name="WEIMIN">      0.00100000</i>
     <i name="EBREAK">      0.00000000</i>
     <i name="DEPER">      0.30000000</i>
     <i type="int" name="NRMM">     4</i>
     <i name="TIME">      0.40000000</i>
    </separator>
   </separator>
   <separator name="electronic mixer" >
    <i name="AMIX">      0.40000000</i>
    <i name="BMIX">      1.00000000</i>
    <i name="AMIN">      0.10000000</i>
    <i name="AMIX_MAG">      1.60000000</i>
    <i name="BMIX_MAG">      1.00000000</i>
    <separator name="electronic mixer details" >
     <i type="int" name="IMIX">     4</i>
     <i type="int" name="MAXMIX">   -45</i>
     <i name="WC">    100.00000000</i>
     <i type="int" name="INIMIX">     1</i>
     <i type="int" name="MIXPRE">     1</i>
     <i type="int" name="MREMOVE">     5</i>
    </separator>
   </separator>
   <separator name="electronic dipolcorrection" >
    <i type="logical" name="LDIPOL"> F  </i>
    <i type="logical" name="LMONO"> F  </i>
    <i type="int" name="IDIPOL">     0</i>
    <i name="EPSILON">      1.00000000</i>
    <v name="DIPOL">   -100.00000000   -100.00000000   -100.00000000</v>
    <i name="EFIELD">      0.00000000</i>
   </separator>
  </separator>
  <separator name="grids" >
   <i type="int" name="NGX">    64</i>
   <i type="int" name="NGY">    36</i>
   <i type="int" name="NGZ">   288</i>
   <i type="int" name="NGXF">   128</i>
   <i type="int" name="NGYF">    72</i>
   <i type="int" name="NGZF">   576</i>
   <i type="logical" name="ADDGRID"> F  </i>
  </separator>
  <separator name="ionic" >
   <i type="int" name="NSW">   400</i>
   <i type="int" name="IBRION">     1</i>
   <i type="int" name="ISIF">     2</i>
   <i name="PSTRESS">      0.00000000</i>
   <i name="EDIFFG">     -0.00000100</i>
   <i type="int" name="NFREE">     0</i>
   <i name="POTIM">      0.50000000</i>
   <i name="SMASS">     -3.00000000</i>
   <i name="SCALEE">      1.00000000</i>
  </separator>
  <separator name="ionic md" >
   <i name="TEBEG">      0.00010000</i>
   <i name="TEEND">      0.00010000</i>
   <i type="int" name="NBLOCK">     1</i>
   <i type="int" name="KBLOCK">   400</i>
   <i type="int" name="NPACO">   256</i>
   <i name="APACO">     16.00000000</i>
  </separator>
  <separator name="symmetry" >
   <i type="int" name="ISYM">     2</i>
   <i name="SYMPREC">      0.00001000</i>
  </separator>
  <separator name="dos" >
   <i type="logical" name="LORBIT"> F  </i>
   <v name="RWIGS">     -1.00000000</v>
   <i type="int" name="NEDOS">   301</i>
   <i name="EMIN">     10.00000000</i>
   <i name="EMAX">    -10.00000000</i>
   <i name="EFERMI">      0.00000000</i>
  </separator>
  <separator name="writing" >
   <i type="int" name="NWRITE">     2</i>
   <i type="logical" name="LWAVE"> F  </i>
   <i type="logical" name="LCHARG"> F  </i>
   <i type="logical" name="LPARD"> F  </i>
   <i type="logical" name="LVTOT"> F  </i>
   <i type="logical" name="LVHAR"> F  </i>
   <i type="logical" name="LELF"> F  </i>
   <i type="logical" name="LOPTICS"> F  </i>
   <v name="STM">      0.00000000      0.00000000      0.00000000      0.00000000      0.00000000      0.00000000      0.00000000</v>
  </separator>
  <separator name="performance" >
   <i type="int" name="NPAR">     4</i>
   <i type="int" name="NSIM">     4</i>
   <i type="int" name="NBLK">    -1</i>
   <i type="logical" name="LPLANE"> T  </i>
   <i type="logical" name="LSCALAPACK"> F  </i>
   <i type="logical" name="LSCAAWARE"> F  </i>
   <i type="logical" name="LSCALU"> F  </i>
   <i type="logical" name="LASYNC"> F  </i>
   <i type="logical" name="LORBITALREAL"> F  </i>
  </separator>
  <separator name="miscellaneous" >
   <i type="int" name="IDIOT">     3</i>
   <i type="logical" name="LMUSIC"> F  </i>
   <v name="POMASS">     12.01100000</v>
   <v name="DARWINR">      0.00000000</v>
   <v name="DARWINV">      1.00000000</v>
   <i type="logical" name="LCORR"> T  </i>
  </separator>
  <i type="logical" name="GGA_COMPAT"> T  </i>
  <i type="logical" name="LBERRY"> F  </i>
  <i type="int" name="ICORELEVEL">     0</i>
  <i type="logical" name="LDAU"> F  </i>
  <i type="int" name="I_CONSTRAINED_M">     0</i>
  <separator name="electronic exchange-correlation" >
   <i type="string" name="GGA">--</i>
   <i type="int" name="VOSKOWN">     0</i>
   <i type="logical" name="LHFCALC"> F  </i>
   <i type="string" name="PRECFOCK"></i>
   <i type="logical" name="LSYMGRAD"> F  </i>
   <i type="logical" name="LHFONE"> F  </i>
   <i type="logical" name="LRHFCALC"> F  </i>
   <i type="logical" name="LTHOMAS"> F  </i>
   <i type="logical" name="LMODELHF"> F  </i>
   <i name="ENCUT4O">     -1.00000000</i>
   <i type="int" name="EXXOEP">     0</i>
   <i type="int" name="FOURORBIT">     0</i>
   <i name="AEXX">      0.00000000</i>
   <i name="HFALPHA">      0.00000000</i>
   <i name="MCALPHA">      0.00000000</i>
   <i name="ALDAX">      1.00000000</i>
   <i name="AGGAX">      1.00000000</i>
   <i name="ALDAC">      1.00000000</i>
   <i name="AGGAC">      1.00000000</i>
   <i type="int" name="NKREDX">     1</i>
   <i type="int" name="NKREDY">     1</i>
   <i type="int" name="NKREDZ">     1</i>
   <i type="logical" name="SHIFTRED"> F  </i>
   <i type="logical" name="ODDONLY"> F  </i>
   <i type="logical" name="EVENONLY"> F  </i>
   <i type="int" name="LMAXFOCK">     0</i>
   <i type="int" name="NMAXFOCKAE">     0</i>
   <i type="logical" name="LFOCKAEDFT"> F  </i>
   <i name="HFSCREEN">      0.00000000</i>
   <i name="HFSCREENC">      0.00000000</i>
   <i type="int" name="NBANDSGWLOW">     0</i>
  </separator>
  <separator name="vdW DFT" >
   <i type="logical" name="LUSE_VDW"> F  </i>
   <i name="Zab_VDW">     -0.84910000</i>
   <i name="PARAM1">      0.12340000</i>
   <i name="PARAM2">      1.00000000</i>
   <i name="PARAM3">      0.00000000</i>
  </separator>
  <separator name="model GW" >
   <i type="int" name="MODEL_GW">     0</i>
   <i name="MODEL_EPS0">     31.62568521</i>
   <i name="MODEL_ALPHA">      1.00000000</i>
  </separator>
  <separator name="linear response parameters" >
   <i type="logical" name="LEPSILON"> F  </i>
   <i type="logical" name="LRPA"> F  </i>
   <i type="logical" name="LNABLA"> F  </i>
   <i type="logical" name="LVEL"> F  </i>
   <i type="int" name="KINTER">     0</i>
   <i name="CSHIFT">      0.10000000</i>
   <i name="OMEGAMAX">     -1.00000000</i>
   <i name="DEG_THRESHOLD">      0.00200000</i>
  </separator>
  <separator name="orbital magnetization" >
   <i type="logical" name="NUCIND"> F  </i>
   <v name="MAGPOS">      0.00000000      0.00000000      0.00000000</v>
   <i type="logical" name="LNICSALL"> T  </i>
   <i type="logical" name="ORBITALMAG"> F  </i>
   <i type="logical" name="LMAGBLOCH"> F  </i>
   <i type="logical" name="LCHIMAG"> F  </i>
   <i type="logical" name="LGAUGE"> T  </i>
   <i type="int" name="MAGATOM">     0</i>
   <v name="MAGDIPOL">      0.00000000      0.00000000      0.00000000</v>
   <v name="AVECCONST">      0.00000000      0.00000000      0.00000000</v>
  </separator>
  <separator name="response functions" >
   <i type="logical" name="LADDER"> F  </i>
   <i type="logical" name="LFXC"> F  </i>
   <i type="logical" name="LHARTREE"> T  </i>
   <i type="int" name="IBSE">     0</i>
   <i type="logical" name="LTCTE"> F  </i>
   <i type="logical" name="LTETE"> F  </i>
   <i type="logical" name="LTRIPLET"> F  </i>
   <i type="logical" name="LFXCEPS"> F  </i>
   <i type="logical" name="LFXHEG"> F  </i>
   <i type="logical" name="L2ORDER"> F  </i>
   <i type="logical" name="LUSEW"> F  </i>
   <i name="ENCUTGW">     -2.00000000</i>
   <i name="ENCUTGWSOFT">     -2.00000000</i>
   <i name="ENCUTLF">     -1.00000000</i>
   <i type="int" name="LMAXMP2">    -1</i>
   <i name="SCISSOR">      0.00000000</i>
   <i type="int" name="NOMEGA">     0</i>
   <i type="int" name="NOMEGAR">     0</i>
   <i type="int" name="NBANDSGW">    -1</i>
   <i type="int" name="NBANDSO">    -1</i>
   <i type="int" name="NBANDSV">    -1</i>
   <i type="int" name="NELM">   100</i>
   <i type="int" name="DIM">     3</i>
   <i type="int" name="ANTIRES">     0</i>
   <i name="OMEGAMAX">    -30.00000000</i>
   <i name="OMEGAMIN">    -30.00000000</i>
   <i name="OMEGATL">   -200.00000000</i>
   <i type="int" name="OMEGAGRID">     0</i>
   <i name="CSHIFT">     -0.10000000</i>
   <i type="logical" name="SELFENERGY"> F  </i>
   <i type="logical" name="LSPECTRAL"> F  </i>
   <i type="logical" name="ODDONLYGW"> F  </i>
   <i type="logical" name="EVENONLYGW"> F  </i>
   <i type="int" name="NKREDLFX">     1</i>
   <i type="int" name="NKREDLFY">     1</i>
   <i type="int" name="NKREDLFZ">     1</i>
   <i type="int" name="MAXMEM">  1800</i>
   <i type="int" name="TELESCOPE">     0</i>
   <i type="int" name="TAUPAR">     1</i>
  </separator>
  <separator name="External order field" >
   <i name="OFIELD_KAPPA">      0.00000000</i>
   <v name="OFIELD_K">      0.00000000      0.00000000      0.00000000</v>
   <i name="OFIELD_Q6_NEAR">      0.00000000</i>
   <i name="OFIELD_Q6_FAR">      0.00000000</i>
   <i name="OFIELD_A">      0.00000000</i>
  </separator>
 </parameters>
 <atominfo>
  <atoms>       4 </atoms>
  <types>       1 </types>
  <array name="atoms" >
   <dimension dim="1">ion</dimension>
   <field type="string">element</field>
   <field type="int">atomtype</field>
   <set>
    <rc><c>C </c><c>   1</c></rc>
    <rc><c>C </c><c>   1</c></rc>
    <rc><c>C </c><c>   1</c></rc>
    <rc><c>C </c><c>   1</c></rc>
   </set>
  </array>
  <array name="atomtypes" >
   <dimension dim="1">type</dimension>
   <field type="int">atomspertype</field>
   <field type="string">element</field>
   <field>mass</field>
   <field>valence</field>
   <field type="string">pseudopotential</field>
   <set>
    <rc><c>   4</c><c>C </c><c>     12.01100000</c><c>      4.00000000</c><c> PAW_PBE C 08Apr2002                    </c></rc>
   </set>
  </array>
 </atominfo>
 <structure name="initialpos" >
  <crystal>
   <varray name="basis" >
    <v>       4.33671909       0.00000000       0.00000000 </v>
    <v>       0.00000000       2.46093969       0.00000000 </v>
    <v>       0.00000000       0.00000000      19.75542706 </v>
   </varray>
   <i name="volume">    210.83790140 </i>
   <varray name="rec_basis" >
    <v>       0.23058907       0.00000000       0.00000000 </v>
    <v>       0.00000000       0.40634884       0.00000000 </v>
    <v>       0.00000000       0.00000000       0.05061900 </v>
   </varray>
  </crystal>
  <varray name="positions" >
   <v>       0.99964215       0.00000000       0.00000000 </v>
   <v>       0.16702452       0.50000000       0.00000000 </v>
   <v>       0.49964215       0.50000000       0.00000000 </v>
   <v>       0.66702452       0.00000000       0.00000000 </v>
  </varray>
 </structure>
 <calculation>
  <scstep>
   <time name="dav">  301.01  303.04</time>
   <time name="total">  303.52  305.86</time>
   <energy>
    <i name="alphaZ">      6.18334092 </i>
    <i name="ewald">   2504.44421138 </i>
    <i name="hartreedc">  -2932.29087466 </i>
    <i name="XCdc">     54.93042241 </i>
    <i name="pawpsdc">    151.32577238 </i>
    <i name="pawaedc">   -155.92769107 </i>
    <i name="eentropy">     -0.00132945 </i>
    <i name="bandstr">    -29.26037814 </i>
    <i name="atom">    588.62352690 </i>
    <i name="e_fr_energy">    188.02700068 </i>
    <i name="e_wo_entrp">    188.02833013 </i>
    <i name="e_0_energy">    188.02766540 </i>
   </energy>
  </scstep>
  <scstep>
   <time name="dav">  451.53  454.37</time>
   <time name="total">  451.53  454.38</time>
   <energy>
    <i name="e_fr_energy">     -8.75836296 </i>
    <i name="e_wo_entrp">     -8.75784812 </i>
    <i name="e_0_energy">     -8.75810554 </i>
   </energy>
  </scstep>
  <scstep>
   <time name="dav">  348.23  349.65</time>
   <time name="total">  379.05  380.98</time>
   <energy>
    <i name="e_fr_energy">    -38.18511602 </i>
    <i name="e_wo_entrp">    -38.18510822 </i>
    <i name="e_0_energy">    -38.18511212 </i>
   </energy>
  </scstep>
  <scstep>
   <time name="diag">   81.28   81.62</time>
   <time name="diis">  352.95  353.13</time>
   <time name="orth">    3.11    3.11</time>
   <time name="total">  470.88  471.46</time>
   <energy>
    <i name="e_fr_energy">    -37.64216945 </i>
    <i name="e_wo_entrp">    -37.64216501 </i>
    <i name="e_0_energy">    -37.64216723 </i>
   </energy>
  </scstep>
  <scstep>
   <time name="diag">   81.49   81.52</time>
   <time name="diis">  344.96  345.09</time>
   <time name="orth">    3.08    3.08</time>
   <time name="total">  463.13  463.33</time>
   <energy>
    <i name="e_fr_energy">    -36.91072406 </i>
    <i name="e_wo_entrp">    -36.91071773 </i>
    <i name="e_0_energy">    -36.91072090 </i>
   </energy>
  </scstep>
  <scstep>
   <time name="diag">   81.58   81.59</time>
   <time name="diis">  369.89  370.22</time>
   <time name="orth">    3.10    3.10</time>
   <time name="total">  488.05  488.93</time>
   <energy>
    <i name="e_fr_energy">    -36.91295737 </i>
    <i name="e_wo_entrp">    -36.91295147 </i>
    <i name="e_0_energy">    -36.91295442 </i>
   </energy>
  </scstep>
  <scstep>
   <time name="diag">   81.56   81.57</time>
   <time name="diis">  341.30  341.52</time>
   <time name="orth">    3.09    3.09</time>
   <time name="total">  459.60  460.06</time>
   <energy>
    <i name="e_fr_energy">    -36.90384968 </i>
    <i name="e_wo_entrp">    -36.90384459 </i>
    <i name="e_0_energy">    -36.90384714 </i>
   </energy>
  </scstep>
  <scstep>
   <time name="diag">   81.59   81.61</time>
   <time name="diis">  343.27  343.36</time>
   <time name="orth">    3.10    3.10</time>
   <time name="total">  461.60  461.74</time>
   <energy>
    <i name="e_fr_energy">    -36.89872495 </i>
    <i name="e_wo_entrp">    -36.89871966 </i>
    <i name="e_0_energy">    -36.89872230 </i>
   </energy>
  </scstep>
  <scstep>
   <time name="diag">   81.60   81.64</time>
   <time name="diis">  333.31  333.72</time>
   <time name="orth">    3.10    3.10</time>
   <time name="total">  451.62  452.13</time>
   <energy>
    <i name="e_fr_energy">    -36.89837369 </i>
    <i name="e_wo_entrp">    -36.89836803 </i>
    <i name="e_0_energy">    -36.89837086 </i>
   </energy>
  </scstep>
  <scstep>
   <time name="diag">   81.62   81.64</time>
   <time name="diis">  334.60  334.67</time>
   <time name="orth">    3.11    3.11</time>
   <time name="total">  453.52  453.63</time>
   <energy>
    <i name="e_fr_energy">    -36.89832419 </i>
    <i name="e_wo_entrp">    -36.89831875 </i>
    <i name="e_0_energy">    -36.89832147 </i>
   </energy>
  </scstep>
  <scstep>
   <time name="diag">   81.67   81.69</time>
   <time name="diis">  335.28  336.19</time>
   <time name="orth">    3.08    3.10</time>
   <time name="total">  453.51  455.02</time>
   <energy>
    <i name="e_fr_energy">    -36.90073129 </i>
    <i name="e_wo_entrp">    -36.90072594 </i>
    <i name="e_0_energy">    -36.90072862 </i>
   </energy>
  </scstep>
  <scstep>
   <time name="diag">   81.65   81.67</time>
   <time name="diis">  336.98  337.07</time>
   <time name="orth">    3.11    3.11</time>
   <time name="total">  455.79  455.92</time>
   <energy>
    <i name="e_fr_energy">    -36.90119943 </i>
    <i name="e_wo_entrp">    -36.90119399 </i>
    <i name="e_0_energy">    -36.90119671 </i>
   </energy>
  </scstep>
  <scstep>
   <time name="diag">   81.62   81.65</time>
   <time name="diis">  342.79  342.89</time>
   <time name="orth">    3.08    3.08</time>
   <time name="total">  461.40  461.54</time>
   <energy>
    <i name="e_fr_energy">    -36.90144291 </i>
    <i name="e_wo_entrp">    -36.90143746 </i>
    <i name="e_0_energy">    -36.90144019 </i>
   </energy>
  </scstep>
  <scstep>
   <time name="diag">   81.63   81.65</time>
   <time name="diis">  335.05  335.21</time>
   <time name="orth">    3.10    3.10</time>
   <time name="total">  453.36  453.59</time>
   <energy>
    <i name="e_fr_energy">    -36.90152483 </i>
    <i name="e_wo_entrp">    -36.90151940 </i>
    <i name="e_0_energy">    -36.90152211 </i>
   </energy>
  </scstep>
  <scstep>
   <time name="diag">   81.49   81.51</time>
   <time name="diis">  335.59  336.21</time>
   <time name="orth">    3.11    3.11</time>
   <time name="total">  453.98  454.65</time>
   <energy>
    <i name="e_fr_energy">    -36.90153461 </i>
    <i name="e_wo_entrp">    -36.90152918 </i>
    <i name="e_0_energy">    -36.90153190 </i>
   </energy>
  </scstep>
  <scstep>
   <time name="diag">   81.48   81.54</time>
   <time name="diis">  330.75  332.21</time>
   <time name="orth">    3.10    3.11</time>
   <time name="total">  449.12  450.71</time>
   <energy>
    <i name="e_fr_energy">    -36.90154687 </i>
    <i name="e_wo_entrp">    -36.90154144 </i>
    <i name="e_0_energy">    -36.90154415 </i>
   </energy>
  </scstep>
  <scstep>
   <time name="diag">   81.51   81.56</time>
   <time name="diis">  339.88  339.96</time>
   <time name="orth">    3.10    3.10</time>
   <time name="total">  458.21  458.36</time>
   <energy>
    <i name="e_fr_energy">    -36.90155179 </i>
    <i name="e_wo_entrp">    -36.90154635 </i>
    <i name="e_0_energy">    -36.90154907 </i>
   </energy>
  </scstep>
  <scstep>
   <time name="diag">   81.49   81.59</time>
   <time name="diis">  329.03  330.44</time>
   <time name="orth">    3.08    3.08</time>
   <time name="total">  447.32  449.00</time>
   <energy>
    <i name="e_fr_energy">    -36.90155286 </i>
    <i name="e_wo_entrp">    -36.90154742 </i>
    <i name="e_0_energy">    -36.90155014 </i>
   </energy>
  </scstep>
  <scstep>
   <time name="diag">   81.24   81.48</time>
   <time name="diis">  348.04  348.63</time>
   <time name="orth">    3.10    3.11</time>
   <time name="total">  466.55  467.42</time>
   <energy>
    <i name="e_fr_energy">    -36.90155358 </i>
    <i name="e_wo_entrp">    -36.90154815 </i>
    <i name="e_0_energy">    -36.90155086 </i>
   </energy>
  </scstep>
  <scstep>
   <time name="diag">   81.38   81.45</time>
   <time name="diis">  267.96  268.20</time>
   <time name="orth">    3.10    3.10</time>
   <time name="total">  386.55  387.11</time>
   <energy>
    <i name="e_fr_energy">    -36.90155363 </i>
    <i name="e_wo_entrp">    -36.90154819 </i>
    <i name="e_0_energy">    -36.90155091 </i>
   </energy>
  </scstep>
  <scstep>
   <time name="diag">   81.46   81.53</time>
   <time name="diis">  256.82  257.07</time>
   <time name="orth">    3.09    3.09</time>
   <time name="total">  375.45  376.19</time>
   <energy>
    <i name="e_fr_energy">    -36.90155365 </i>
    <i name="e_wo_entrp">    -36.90154821 </i>
    <i name="e_0_energy">    -36.90155093 </i>
   </energy>
  </scstep>
  <scstep>
   <time name="diag">   81.44   81.46</time>
   <time name="diis">  229.28  229.59</time>
   <time name="orth">    3.08    3.08</time>
   <time name="total">  347.53  348.09</time>
   <energy>
    <i name="e_fr_energy">    -36.90155365 </i>
    <i name="e_wo_entrp">    -36.90154821 </i>
    <i name="e_0_energy">    -36.90155093 </i>
   </energy>
  </scstep>
  <scstep>
   <time name="diag">   81.14   81.58</time>
   <time name="diis">  214.48  215.59</time>
   <time name="orth">    3.09    3.10</time>
   <time name="total">  332.44  334.22</time>
   <energy>
    <i name="e_fr_energy">    -36.90155365 </i>
    <i name="e_wo_entrp">    -36.90154821 </i>
    <i name="e_0_energy">    -36.90155093 </i>
   </energy>
  </scstep>
  <scstep>
   <time name="diag">   81.14   81.39</time>
   <time name="diis">  201.83  201.95</time>
   <time name="orth">    3.08    3.08</time>
   <time name="total">  288.38  289.36</time>
   <energy>
    <i name="alphaZ">      6.18334092 </i>
    <i name="ewald">   2504.44421138 </i>
    <i name="hartreedc">  -2998.59407128 </i>
    <i name="XCdc">     57.29557301 </i>
    <i name="pawpsdc">    272.12235982 </i>
    <i name="pawaedc">   -277.24872431 </i>
    <i name="eentropy">     -0.00000544 </i>
    <i name="bandstr">   -189.72776466 </i>
    <i name="atom">    588.62352690 </i>
    <i name="e_fr_energy">    -36.90155365 </i>
    <i name="e_wo_entrp">    -36.90154821 </i>
    <i name="e_0_energy">    -36.90155093 </i>
   </energy>
  </scstep>
  <structure>
   <crystal>
    <varray name="basis" >
     <v>       4.33671909       0.00000000       0.00000000 </v>
     <v>       0.00000000       2.46093969       0.00000000 </v>
     <v>       0.00000000       0.00000000      19.75542706 </v>
    </varray>
    <i name="volume">    210.83790140 </i>
    <varray name="rec_basis" >
     <v>       0.23058907       0.00000000       0.00000000 </v>
     <v>       0.00000000       0.40634884       0.00000000 </v>
     <v>       0.00000000       0.00000000       0.05061900 </v>
    </varray>
   </crystal>
   <varray name="positions" >
    <v>       0.99964215       0.00000000       0.00000000 </v>
    <v>       0.16702452       0.50000000       0.00000000 </v>
    <v>       0.49964215       0.50000000       0.00000000 </v>
    <v>       0.66702452       0.00000000       0.00000000 </v>
   </varray>
  </structure>
  <varray name="forces" >
   <v>       0.00234660       0.00000000       0.00000000 </v>
   <v>      -0.00234660      -0.00000000       0.00000000 </v>
   <v>       0.00234660      -0.00000000       0.00000000 </v>
   <v>      -0.00234660       0.00000000       0.00000000 </v>
  </varray>
  <varray name="stress" >
   <v>     -24.69031052       0.00000000       0.00000000 </v>
   <v>       0.00000000      -0.01756624       0.00000000 </v>
   <v>       0.00000000       0.00000000      -0.01019057 </v>
  </varray>
  <energy>
   <i name="e_fr_energy">    -36.90155365 </i>
   <i name="e_wo_entrp">    -36.90155093 </i>
   <i name="e_0_energy">     -0.00000544 </i>
  </energy>
  <time name="totalsc">10316.1010338.20</time>
 </calculation>
 <calculation>
  <scstep>
   <time name="dav">  313.95  314.63</time>
   <time name="total">  347.64  348.34</time>
   <energy>
    <i name="alphaZ">      6.18334092 </i>
    <i name="ewald">   2504.44566623 </i>
    <i name="hartreedc">  -2998.59471341 </i>
    <i name="XCdc">     57.29561468 </i>
    <i name="pawpsdc">    272.12236828 </i>
    <i name="pawaedc">   -277.24873288 </i>
    <i name="eentropy">     -0.00000484 </i>
    <i name="bandstr">   -189.72861797 </i>
    <i name="atom">    588.62352690 </i>
    <i name="e_fr_energy">    -36.90155209 </i>
    <i name="e_wo_entrp">    -36.90154725 </i>
    <i name="e_0_energy">    -36.90154967 </i>
   </energy>
  </scstep>
  <scstep>
   <time name="diag">   81.59   81.62</time>
   <time name="diis">  334.19  334.28</time>
   <time name="orth">    3.10    3.10</time>
   <time name="total">  452.35  452.57</time>
   <energy>
    <i name="e_fr_energy">    -36.90155219 </i>
    <i name="e_wo_entrp">    -36.90154733 </i>
    <i name="e_0_energy">    -36.90154976 </i>
   </energy>
  </scstep>
  <scstep>
   <time name="diag">   81.53   81.56</time>
   <time name="diis">  337.30  337.40</time>
   <time name="orth">    3.12    3.12</time>
   <time name="total">  455.45  455.60</time>
   <energy>
    <i name="e_fr_energy">    -36.90155213 </i>
    <i name="e_wo_entrp">    -36.90154724 </i>
    <i name="e_0_energy">    -36.90154969 </i>
   </energy>
  </scstep>
  <scstep>
   <time name="diag">   81.53   81.54</time>
   <time name="diis">  348.30  348.40</time>
   <time name="orth">    3.08    3.08</time>
   <time name="total">  466.73  466.87</time>
   <energy>
    <i name="e_fr_energy">    -36.90155212 </i>
    <i name="e_wo_entrp">    -36.90154724 </i>
    <i name="e_0_energy">    -36.90154968 </i>
   </energy>
  </scstep>
  <scstep>
   <time name="diag">   81.50   81.53</time>
   <time name="diis">  333.21  334.50</time>
   <time name="orth">    3.11    3.11</time>
   <time name="total">  451.43  452.77</time>
   <energy>
    <i name="e_fr_energy">    -36.90155212 </i>
    <i name="e_wo_entrp">    -36.90154724 </i>
    <i name="e_0_energy">    -36.90154968 </i>
   </energy>
  </scstep>
  <scstep>
   <time name="diag">   81.51   81.54</time>
   <time name="diis">  247.85  248.04</time>
   <time name="orth">    3.08    3.08</time>
   <time name="total">  366.02  366.27</time>
   <energy>
    <i name="e_fr_energy">    -36.90155212 </i>
    <i name="e_wo_entrp">    -36.90154724 </i>
    <i name="e_0_energy">    -36.90154968 </i>
   </energy>
  </scstep>
  <scstep>
   <time name="diag">   81.32   81.51</time>
   <time name="diis">  220.18  220.36</time>
   <time name="orth">    3.11    3.11</time>
   <time name="total">  306.96  307.67</time>
   <energy>
    <i name="alphaZ">      6.18334092 </i>
    <i name="ewald">   2504.44566623 </i>
    <i name="hartreedc">  -2998.59527384 </i>
    <i name="XCdc">     57.29563891 </i>
    <i name="pawpsdc">    272.12487382 </i>
    <i name="pawaedc">   -277.25124943 </i>
    <i name="eentropy">     -0.00000488 </i>
    <i name="bandstr">   -189.72807076 </i>
    <i name="atom">    588.62352690 </i>
    <i name="e_fr_energy">    -36.90155212 </i>
    <i name="e_wo_entrp">    -36.90154724 </i>
    <i name="e_0_energy">    -36.90154968 </i>
   </energy>
  </scstep>
  <structure>
   <crystal>
    <varray name="basis" >
     <v>       4.33671909       0.00000000       0.00000000 </v>
     <v>       0.00000000       2.46093969       0.00000000 </v>
     <v>       0.00000000       0.00000000      19.75542706 </v>
    </varray>
    <i name="volume">    210.83790140 </i>
    <varray name="rec_basis" >
     <v>       0.23058907       0.00000000       0.00000000 </v>
     <v>       0.00000000       0.40634884       0.00000000 </v>
     <v>       0.00000000       0.00000000       0.05061900 </v>
    </varray>
   </crystal>
   <varray name="positions" >
    <v>       0.99966825       0.00000000       0.00000000 </v>
    <v>       0.16699841       0.50000000       0.00000000 </v>
    <v>       0.49966825       0.50000000       0.00000000 </v>
    <v>       0.66699841       0.00000000       0.00000000 </v>
   </varray>
  </structure>
  <varray name="forces" >
   <v>      -0.00913676      -0.00000000      -0.00000000 </v>
   <v>       0.00913676       0.00000000       0.00000000 </v>
   <v>      -0.00913676       0.00000000      -0.00000000 </v>
   <v>       0.00913676      -0.00000000       0.00000000 </v>
  </varray>
  <varray name="stress" >
   <v>     -24.71697437       0.00000000       0.00000000 </v>
   <v>       0.00000000       0.02041039       0.00000000 </v>
   <v>       0.00000000       0.00000000      -0.01013396 </v>
  </varray>
  <energy>
   <i name="e_fr_energy">    -36.90155212 </i>
   <i name="e_wo_entrp">    -36.90154968 </i>
   <i name="e_0_energy">     -0.00000488 </i>
  </energy>
  <time name="totalsc"> 2951.14 2954.87</time>
 </calculation>
 <calculation>
  <scstep>
   <time name="dav">  321.50  321.90</time>
   <time name="total">  355.24  355.76</time>
   <energy>
    <i name="alphaZ">      6.18334092 </i>
    <i name="ewald">   2504.44450722 </i>
    <i name="hartreedc">  -2998.59478438 </i>
    <i name="XCdc">     57.29560614 </i>
    <i name="pawpsdc">    272.12488080 </i>
    <i name="pawaedc">   -277.25125638 </i>
    <i name="eentropy">     -0.00000536 </i>
    <i name="bandstr">   -189.72736963 </i>
    <i name="atom">    588.62352690 </i>
    <i name="e_fr_energy">    -36.90155376 </i>
    <i name="e_wo_entrp">    -36.90154841 </i>
    <i name="e_0_energy">    -36.90155108 </i>
   </energy>
  </scstep>
  <scstep>
   <time name="diag">   81.26   81.67</time>
   <time name="diis">  331.35  331.46</time>
   <time name="orth">    3.10    3.10</time>
   <time name="total">  449.47  450.04</time>
   <energy>
    <i name="e_fr_energy">    -36.90155381 </i>
    <i name="e_wo_entrp">    -36.90154847 </i>
    <i name="e_0_energy">    -36.90155114 </i>
   </energy>
  </scstep>
  <scstep>
   <time name="diag">   81.64   81.66</time>
   <time name="diis">  335.89  337.83</time>
   <time name="orth">    3.09    3.09</time>
   <time name="total">  454.22  456.55</time>
   <energy>
    <i name="e_fr_energy">    -36.90155376 </i>
    <i name="e_wo_entrp">    -36.90154845 </i>
    <i name="e_0_energy">    -36.90155111 </i>
   </energy>
  </scstep>
  <scstep>
   <time name="diag">   81.03   81.67</time>
   <time name="diis">  343.91  347.18</time>
   <time name="orth">    3.09    3.09</time>
   <time name="total">  461.93  466.63</time>
   <energy>
    <i name="e_fr_energy">    -36.90155376 </i>
    <i name="e_wo_entrp">    -36.90154844 </i>
    <i name="e_0_energy">    -36.90155110 </i>
   </energy>
  </scstep>
  <scstep>
   <time name="diag">   81.28   81.73</time>
   <time name="diis">  314.92  317.25</time>
   <time name="orth">    3.10    3.11</time>
   <time name="total">  433.17  436.40</time>
   <energy>
    <i name="e_fr_energy">    -36.90155376 </i>
    <i name="e_wo_entrp">    -36.90154844 </i>
    <i name="e_0_energy">    -36.90155110 </i>
   </energy>
  </scstep>
  <scstep>
   <time name="diag">   81.04   81.72</time>
   <time name="diis">  227.59  229.92</time>
   <time name="orth">    3.08    3.11</time>
   <time name="total">  314.10  317.38</time>
   <energy>
    <i name="alphaZ">      6.18334092 </i>
    <i name="ewald">   2504.44450722 </i>
    <i name="hartreedc">  -2998.59437654 </i>
    <i name="XCdc">     57.29558727 </i>
    <i name="pawpsdc">    272.12288678 </i>
    <i name="pawaedc">   -277.24925361 </i>
    <i name="eentropy">     -0.00000532 </i>
    <i name="bandstr">   -189.72776738 </i>
    <i name="atom">    588.62352690 </i>
    <i name="e_fr_energy">    -36.90155376 </i>
    <i name="e_wo_entrp">    -36.90154844 </i>
    <i name="e_0_energy">    -36.90155110 </i>
   </energy>
  </scstep>
  <structure>
   <crystal>
    <varray name="basis" >
     <v>       4.33671909       0.00000000       0.00000000 </v>
     <v>       0.00000000       2.46093969       0.00000000 </v>
     <v>       0.00000000       0.00000000      19.75542706 </v>
    </varray>
    <i name="volume">    210.83790140 </i>
    <varray name="rec_basis" >
     <v>       0.23058907       0.00000000       0.00000000 </v>
     <v>       0.00000000       0.40634884       0.00000000 </v>
     <v>       0.00000000       0.00000000       0.05061900 </v>
    </varray>
   </crystal>
   <varray name="positions" >
    <v>       0.99964748       0.00000000      -0.00000000 </v>
    <v>       0.16701918       0.50000000       0.00000000 </v>
    <v>       0.49964748       0.50000000      -0.00000000 </v>
    <v>       0.66701918       0.00000000       0.00000000 </v>
   </varray>
  </structure>
  <varray name="forces" >
   <v>      -0.00000955       0.00000000       0.00000000 </v>
   <v>       0.00000955       0.00000000      -0.00000000 </v>
   <v>      -0.00000955       0.00000000       0.00000000 </v>
   <v>       0.00000955      -0.00000000      -0.00000000 </v>
  </varray>
  <varray name="stress" >
   <v>     -24.69587623       0.00000000       0.00000000 </v>
   <v>       0.00000000      -0.00968305       0.00000000 </v>
   <v>       0.00000000       0.00000000      -0.01026703 </v>
  </varray>
  <energy>
   <i name="e_fr_energy">    -36.90155376 </i>
   <i name="e_wo_entrp">    -36.90155110 </i>
   <i name="e_0_energy">     -0.00000532 </i>
  </energy>
  <time name="totalsc"> 2575.62 2591.20</time>
 </calculation>
 <calculation>
  <scstep>
   <time name="dav">  260.17  262.13</time>
   <time name="total">  294.08  296.38</time>
   <energy>
    <i name="alphaZ">      6.18334092 </i>
    <i name="ewald">   2504.44450602 </i>
    <i name="hartreedc">  -2998.59436270 </i>
    <i name="XCdc">     57.29558694 </i>
    <i name="pawpsdc">    272.12287944 </i>
    <i name="pawaedc">   -277.24924622 </i>
    <i name="eentropy">     -0.00000532 </i>
    <i name="bandstr">   -189.72777974 </i>
    <i name="atom">    588.62352690 </i>
    <i name="e_fr_energy">    -36.90155376 </i>
    <i name="e_wo_entrp">    -36.90154844 </i>
    <i name="e_0_energy">    -36.90155110 </i>
   </energy>
  </scstep>
  <scstep>
   <time name="diag">   81.61   81.63</time>
   <time name="diis">  206.52  207.39</time>
   <time name="orth">    3.08    3.08</time>
   <time name="total">  325.22  326.30</time>
   <energy>
    <i name="e_fr_energy">    -36.90155376 </i>
    <i name="e_wo_entrp">    -36.90154844 </i>
    <i name="e_0_energy">    -36.90155110 </i>
   </energy>
  </scstep>
  <scstep>
   <time name="diag">   81.52   81.66</time>
   <time name="diis">  201.52  201.67</time>
   <time name="orth">    3.10    3.10</time>
   <time name="total">  320.35  320.66</time>
   <energy>
    <i name="e_fr_energy">    -36.90155376 </i>
    <i name="e_wo_entrp">    -36.90154844 </i>
    <i name="e_0_energy">    -36.90155110 </i>
   </energy>
  </scstep>
  <scstep>
   <time name="diag">   81.62   81.65</time>
   <time name="diis">  193.98  194.01</time>
   <time name="orth">    3.08    3.08</time>
   <time name="total">  312.92  313.00</time>
   <energy>
    <i name="e_fr_energy">    -36.90155376 </i>
    <i name="e_wo_entrp">    -36.90154844 </i>
    <i name="e_0_energy">    -36.90155110 </i>
   </energy>
  </scstep>
  <scstep>
   <time name="diag">   81.09   81.66</time>
   <time name="diis">  180.87  182.20</time>
   <time name="orth">    3.08    3.08</time>
   <time name="total">  297.96  300.12</time>
   <energy>
    <i name="e_fr_energy">    -36.90155376 </i>
    <i name="e_wo_entrp">    -36.90154844 </i>
    <i name="e_0_energy">    -36.90155110 </i>
   </energy>
  </scstep>
  <scstep>
   <time name="diag">   81.66   81.69</time>
   <time name="diis">  174.82  174.86</time>
   <time name="orth">    3.10    3.10</time>
   <time name="total">  292.55  292.63</time>
   <energy>
    <i name="e_fr_energy">    -36.90155376 </i>
    <i name="e_wo_entrp">    -36.90154844 </i>
    <i name="e_0_energy">    -36.90155110 </i>
   </energy>
  </scstep>
  <scstep>
   <time name="diag">   81.69   81.71</time>
   <time name="diis">  169.04  169.19</time>
   <time name="orth">    3.08    3.08</time>
   <time name="total">  286.52  286.85</time>
   <energy>
    <i name="e_fr_energy">    -36.90155376 </i>
    <i name="e_wo_entrp">    -36.90154844 </i>
    <i name="e_0_energy">    -36.90155110 </i>
   </energy>
  </scstep>
  <scstep>
   <time name="diag">   81.46   81.71</time>
   <time name="diis">  165.13  165.21</time>
   <time name="orth">    3.10    3.10</time>
   <time name="total">  282.05  282.42</time>
   <energy>
    <i name="e_fr_energy">    -36.90155376 </i>
    <i name="e_wo_entrp">    -36.90154844 </i>
    <i name="e_0_energy">    -36.90155110 </i>
   </energy>
  </scstep>
  <scstep>
   <time name="diag">   81.68   81.70</time>
   <time name="diis">  165.39  166.12</time>
   <time name="orth">    3.09    3.11</time>
   <time name="total">  283.51  284.46</time>
   <energy>
    <i name="e_fr_energy">    -36.90155376 </i>
    <i name="e_wo_entrp">    -36.90154844 </i>
    <i name="e_0_energy">    -36.90155110 </i>
   </energy>
  </scstep>
  <scstep>
   <time name="diag">   81.23   81.67</time>
   <time name="diis">  163.16  163.67</time>
   <time name="orth">    3.11    3.11</time>
   <time name="total">  281.28  282.26</time>
   <energy>
    <i name="e_fr_energy">    -36.90155376 </i>
    <i name="e_wo_entrp">    -36.90154844 </i>
    <i name="e_0_energy">    -36.90155110 </i>
   </energy>
  </scstep>
  <scstep>
   <time name="diag">   81.12   81.62</time>
   <time name="diis">  162.12  162.72</time>
   <time name="orth">    3.08    3.08</time>
   <time name="total">  278.82  280.05</time>
   <energy>
    <i name="e_fr_energy">    -36.90155376 </i>
    <i name="e_wo_entrp">    -36.90154844 </i>
    <i name="e_0_energy">    -36.90155110 </i>
   </energy>
  </scstep>
  <scstep>
   <time name="diag">   81.32   81.66</time>
   <time name="diis">  160.15  160.41</time>
   <time name="orth">    3.09    3.10</time>
   <time name="total">  278.16  279.13</time>
   <energy>
    <i name="e_fr_energy">    -36.90155376 </i>
    <i name="e_wo_entrp">    -36.90154844 </i>
    <i name="e_0_energy">    -36.90155110 </i>
   </energy>
  </scstep>
  <scstep>
   <time name="diag">   81.07   81.69</time>
   <time name="diis">  153.33  154.87</time>
   <time name="orth">    3.08    3.10</time>
   <time name="total">  270.86  274.39</time>
   <energy>
    <i name="e_fr_energy">    -36.90155376 </i>
    <i name="e_wo_entrp">    -36.90154844 </i>
    <i name="e_0_energy">    -36.90155110 </i>
   </energy>
  </scstep>
  <scstep>
   <time name="diag">   81.34   81.77</time>
   <time name="diis">  151.07  151.42</time>
   <time name="orth">    3.09    3.11</time>
   <time name="total">  237.86  238.92</time>
   <energy>
    <i name="alphaZ">      6.18334092 </i>
    <i name="ewald">   2504.44450602 </i>
    <i name="hartreedc">  -2998.59432985 </i>
    <i name="XCdc">     57.29558664 </i>
    <i name="pawpsdc">    272.12287368 </i>
    <i name="pawaedc">   -277.24924050 </i>
    <i name="eentropy">     -0.00000532 </i>
    <i name="bandstr">   -189.72781225 </i>
    <i name="atom">    588.62352690 </i>
    <i name="e_fr_energy">    -36.90155376 </i>
    <i name="e_wo_entrp">    -36.90154844 </i>
    <i name="e_0_energy">    -36.90155110 </i>
   </energy>
  </scstep>
  <structure>
   <crystal>
    <varray name="basis" >
     <v>       4.33671909       0.00000000       0.00000000 </v>
     <v>       0.00000000       2.46093969       0.00000000 </v>
     <v>       0.00000000       0.00000000      19.75542706 </v>
    </varray>
    <i name="volume">    210.83790140 </i>
    <varray name="rec_basis" >
     <v>       0.23058907       0.00000000       0.00000000 </v>
     <v>       0.00000000       0.40634884       0.00000000 </v>
     <v>       0.00000000       0.00000000       0.05061900 </v>
    </varray>
   </crystal>
   <varray name="positions" >
    <v>       0.99964746       0.00000000      -0.00000000 </v>
    <v>       0.16701920       0.50000000       0.00000000 </v>
    <v>       0.49964746       0.50000000      -0.00000000 </v>
    <v>       0.66701920       0.00000000       0.00000000 </v>
   </varray>
  </structure>
  <varray name="forces" >
   <v>       0.00001045      -0.00000000      -0.00000000 </v>
   <v>      -0.00001045      -0.00000000       0.00000000 </v>
   <v>       0.00001045      -0.00000000      -0.00000000 </v>
   <v>      -0.00001045       0.00000000       0.00000000 </v>
  </varray>
  <varray name="stress" >
   <v>     -24.69573905       0.00000000       0.00000000 </v>
   <v>       0.00000000      -0.00982691       0.00000000 </v>
   <v>       0.00000000       0.00000000      -0.01021101 </v>
  </varray>
  <energy>
   <i name="e_fr_energy">    -36.90155376 </i>
   <i name="e_wo_entrp">    -36.90155110 </i>
   <i name="e_0_energy">     -0.00000532 </i>
  </energy>
  <time name="totalsc"> 4145.24 4160.96</time>
 </calculation>
 <calculation>
  <scstep>
   <time name="dav">  263.73  264.90</time>
   <time name="total">  296.99  298.27</time>
   <energy>
    <i name="alphaZ">      6.18334092 </i>
    <i name="ewald">   2504.44450665 </i>
    <i name="hartreedc">  -2998.59433049 </i>
    <i name="XCdc">     57.29558667 </i>
    <i name="pawpsdc">    272.12287393 </i>
    <i name="pawaedc">   -277.24924075 </i>
    <i name="eentropy">     -0.00000532 </i>
    <i name="bandstr">   -189.72781227 </i>
    <i name="atom">    588.62352690 </i>
    <i name="e_fr_energy">    -36.90155376 </i>
    <i name="e_wo_entrp">    -36.90154844 </i>
    <i name="e_0_energy">    -36.90155110 </i>
   </energy>
  </scstep>
  <scstep>
   <time name="diag">   81.38   81.78</time>
   <time name="diis">  149.47  150.02</time>
   <time name="orth">    3.10    3.10</time>
   <time name="total">  267.57  268.77</time>
   <energy>
    <i name="e_fr_energy">    -36.90155376 </i>
    <i name="e_wo_entrp">    -36.90154844 </i>
    <i name="e_0_energy">    -36.90155110 </i>
   </energy>
  </scstep>
  <scstep>
   <time name="diag">   81.63   81.77</time>
   <time name="diis">  149.09  150.47</time>
   <time name="orth">    3.08    3.08</time>
   <time name="total">  267.30  269.30</time>
   <energy>
    <i name="e_fr_energy">    -36.90155376 </i>
    <i name="e_wo_entrp">    -36.90154844 </i>
    <i name="e_0_energy">    -36.90155110 </i>
   </energy>
  </scstep>
  <scstep>
   <time name="diag">   80.80   81.71</time>
   <time name="diis">  148.52  150.09</time>
   <time name="orth">    3.08    3.08</time>
   <time name="total">  266.04  268.94</time>
   <energy>
    <i name="e_fr_energy">    -36.90155376 </i>
    <i name="e_wo_entrp">    -36.90154844 </i>
    <i name="e_0_energy">    -36.90155110 </i>
   </energy>
  </scstep>
  <scstep>
   <time name="diag">   81.30   81.75</time>
   <time name="diis">  147.59  147.73</time>
   <time name="orth">    3.09    3.10</time>
   <time name="total">  234.38  235.03</time>
   <energy>
    <i name="alphaZ">      6.18334092 </i>
    <i name="ewald">   2504.44450665 </i>
    <i name="hartreedc">  -2998.59433369 </i>
    <i name="XCdc">     57.29558678 </i>
    <i name="pawpsdc">    272.12287583 </i>
    <i name="pawaedc">   -277.24924267 </i>
    <i name="eentropy">     -0.00000532 </i>
    <i name="bandstr">   -189.72780916 </i>
    <i name="atom">    588.62352690 </i>
    <i name="e_fr_energy">    -36.90155376 </i>
    <i name="e_wo_entrp">    -36.90154844 </i>
    <i name="e_0_energy">    -36.90155110 </i>
   </energy>
  </scstep>
  <structure>
   <crystal>
    <varray name="basis" >
     <v>       4.33671909       0.00000000       0.00000000 </v>
     <v>       0.00000000       2.46093969       0.00000000 </v>
     <v>       0.00000000       0.00000000      19.75542706 </v>
    </varray>
    <i name="volume">    210.83790140 </i>
    <varray name="rec_basis" >
     <v>       0.23058907       0.00000000       0.00000000 </v>
     <v>       0.00000000       0.40634884       0.00000000 </v>
     <v>       0.00000000       0.00000000       0.05061900 </v>
    </varray>
   </crystal>
   <varray name="positions" >
    <v>       0.99964747       0.00000000      -0.00000000 </v>
    <v>       0.16701919       0.50000000       0.00000000 </v>
    <v>       0.49964747       0.50000000      -0.00000000 </v>
    <v>       0.66701919       0.00000000       0.00000000 </v>
   </varray>
  </structure>
  <varray name="forces" >
   <v>       0.00000132       0.00000000       0.00000000 </v>
   <v>      -0.00000132      -0.00000000      -0.00000000 </v>
   <v>       0.00000132       0.00000000       0.00000000 </v>
   <v>      -0.00000132       0.00000000      -0.00000000 </v>
  </varray>
  <varray name="stress" >
   <v>     -24.69576531       0.00000000       0.00000000 </v>
   <v>       0.00000000      -0.00979716       0.00000000 </v>
   <v>       0.00000000       0.00000000      -0.01019453 </v>
  </varray>
  <energy>
   <i name="e_fr_energy">    -36.90155376 </i>
   <i name="e_wo_entrp">    -36.90155110 </i>
   <i name="e_0_energy">     -0.00000532 </i>
  </energy>
  <time name="totalsc"> 1437.08 1446.43</time>
 </calculation>
 <calculation>
  <scstep>
   <time name="dav">  257.43  259.23</time>
   <time name="total">  291.35  293.16</time>
   <energy>
    <i name="alphaZ">      6.18334092 </i>
    <i name="ewald">   2504.44450674 </i>
    <i name="hartreedc">  -2998.59433391 </i>
    <i name="XCdc">     57.29558679 </i>
    <i name="pawpsdc">    272.12287584 </i>
    <i name="pawaedc">   -277.24924269 </i>
    <i name="eentropy">     -0.00000532 </i>
    <i name="bandstr">   -189.72780904 </i>
    <i name="atom">    588.62352690 </i>
    <i name="e_fr_energy">    -36.90155376 </i>
    <i name="e_wo_entrp">    -36.90154844 </i>
    <i name="e_0_energy">    -36.90155110 </i>
   </energy>
  </scstep>
  <scstep>
   <time name="diag">   81.52   81.53</time>
   <time name="diis">  125.43  125.46</time>
   <time name="orth">    3.11    3.11</time>
   <time name="total">  244.15  244.20</time>
   <energy>
    <i name="e_fr_energy">    -36.90155376 </i>
    <i name="e_wo_entrp">    -36.90154844 </i>
    <i name="e_0_energy">    -36.90155110 </i>
   </energy>
  </scstep>
  <scstep>
   <time name="diag">   81.50   81.54</time>
   <time name="diis">  126.33  126.47</time>
   <time name="orth">    3.12    3.12</time>
   <time name="total">  244.96  245.19</time>
   <energy>
    <i name="e_fr_energy">    -36.90155376 </i>
    <i name="e_wo_entrp">    -36.90154844 </i>
    <i name="e_0_energy">    -36.90155110 </i>
   </energy>
  </scstep>
  <scstep>
   <time name="diag">   81.52   81.56</time>
   <time name="diis">  126.10  126.13</time>
   <time name="orth">    3.10    3.10</time>
   <time name="total">  244.55  244.62</time>
   <energy>
    <i name="e_fr_energy">    -36.90155376 </i>
    <i name="e_wo_entrp">    -36.90154844 </i>
    <i name="e_0_energy">    -36.90155110 </i>
   </energy>
  </scstep>
  <scstep>
   <time name="diag">   81.68   81.70</time>
   <time name="diis">  120.50  120.54</time>
   <time name="orth">    3.10    3.10</time>
   <time name="total">  239.08  239.25</time>
   <energy>
    <i name="e_fr_energy">    -36.90155376 </i>
    <i name="e_wo_entrp">    -36.90154844 </i>
    <i name="e_0_energy">    -36.90155110 </i>
   </energy>
  </scstep>
  <scstep>
   <time name="diag">   81.16   81.59</time>
   <time name="diis">  127.92  127.96</time>
   <time name="orth">    3.10    3.10</time>
   <time name="total">  214.63  215.12</time>
   <energy>
    <i name="alphaZ">      6.18334092 </i>
    <i name="ewald">   2504.44450674 </i>
    <i name="hartreedc">  -2998.59433342 </i>
    <i name="XCdc">     57.29558676 </i>
    <i name="pawpsdc">    272.12287551 </i>
    <i name="pawaedc">   -277.24924235 </i>
    <i name="eentropy">     -0.00000532 </i>
    <i name="bandstr">   -189.72780950 </i>
    <i name="atom">    588.62352690 </i>
    <i name="e_fr_energy">    -36.90155376 </i>
    <i name="e_wo_entrp">    -36.90154844 </i>
    <i name="e_0_energy">    -36.90155110 </i>
   </energy>
  </scstep>
  <structure>
   <crystal>
    <varray name="basis" >
     <v>       4.33671909       0.00000000       0.00000000 </v>
     <v>       0.00000000       2.46093969       0.00000000 </v>
     <v>       0.00000000       0.00000000      19.75542706 </v>
    </varray>
    <i name="volume">    210.83790140 </i>
    <varray name="rec_basis" >
     <v>       0.23058907       0.00000000       0.00000000 </v>
     <v>       0.00000000       0.40634884       0.00000000 </v>
     <v>       0.00000000       0.00000000       0.05061900 </v>
    </varray>
   </crystal>
   <varray name="positions" >
    <v>       0.99964748       0.00000000       0.00000000 </v>
    <v>       0.16701919       0.50000000      -0.00000000 </v>
    <v>       0.49964748       0.50000000       0.00000000 </v>
    <v>       0.66701919       0.00000000      -0.00000000 </v>
   </varray>
  </structure>
  <varray name="forces" >
   <v>       0.00000077       0.00000000      -0.00000000 </v>
   <v>      -0.00000077      -0.00000000       0.00000000 </v>
   <v>       0.00000077      -0.00000000      -0.00000000 </v>
   <v>      -0.00000077       0.00000000       0.00000000 </v>
  </varray>
  <varray name="stress" >
   <v>     -24.69576374       0.00000000       0.00000000 </v>
   <v>       0.00000000      -0.00979680       0.00000000 </v>
   <v>       0.00000000       0.00000000      -0.01020245 </v>
  </varray>
  <energy>
   <i name="e_fr_energy">    -36.90155376 </i>
   <i name="e_wo_entrp">    -36.90155110 </i>
   <i name="e_0_energy">     -0.00000532 </i>
  </energy>
  <time name="totalsc"> 1575.65 1578.83</time>
  <eigenvalues>
   <array>
    <dimension dim="1">band</dimension>
    <dimension dim="2">kpoint</dimension>
    <dimension dim="3">spin</dimension>
    <field>eigene</field>
    <field>occ</field>
    <set>
     <set comment="spin 1">
      <set comment="kpoint 1">
       <r>  -22.1510    1.0000 </r>
       <r>  -17.1650    1.0000 </r>
       <r>  -15.8921    1.0000 </r>
       <r>  -10.2796    1.0000 </r>
       <r>   -8.9445    1.0000 </r>
       <r>   -5.9207    1.0000 </r>
       <r>   -5.7494    1.0000 </r>
       <r>   -5.2463    1.0000 </r>
       <r>   -1.1436    0.0000 </r>
       <r>    0.5362    0.0000 </r>
       <r>    1.3355    0.0000 </r>
       <r>    1.7246    0.0000 </r>
      </set>
      <set comment="kpoint 2">
       <r>  -22.1410    1.0000 </r>
       <r>  -17.2996    1.0000 </r>
       <r>  -15.7425    1.0000 </r>
       <r>  -10.2678    1.0000 </r>
       <r>   -8.9348    1.0000 </r>
       <r>   -5.9644    1.0000 </r>
       <r>   -5.7704    1.0000 </r>
       <r>   -5.3080    1.0000 </r>
       <r>   -1.0660    0.0000 </r>
       <r>    0.5496    0.0000 </r>
       <r>    1.3492    0.0000 </r>
       <r>    1.7384    0.0000 </r>
      </set>
      <set comment="kpoint 3">
       <r>  -22.1111    1.0000 </r>
       <r>  -17.5976    1.0000 </r>
       <r>  -15.3993    1.0000 </r>
       <r>  -10.2323    1.0000 </r>
       <r>   -8.9056    1.0000 </r>
       <r>   -6.0935    1.0000 </r>
       <r>   -5.8325    1.0000 </r>
       <r>   -5.4803    1.0000 </r>
       <r>   -0.8463    0.0000 </r>
       <r>    0.5901    0.0000 </r>
       <r>    1.3902    0.0000 </r>
       <r>    1.7799    0.0000 </r>
      </set>
      <set comment="kpoint 4">
       <r>  -22.0614    1.0000 </r>
       <r>  -17.9467    1.0000 </r>
       <r>  -14.9751    1.0000 </r>
       <r>  -10.1731    1.0000 </r>
       <r>   -8.8572    1.0000 </r>
       <r>   -6.3024    1.0000 </r>
       <r>   -5.9323    1.0000 </r>
       <r>   -5.7336    1.0000 </r>
       <r>   -0.5147    0.0000 </r>
       <r>    0.6575    0.0000 </r>
       <r>    1.4585    0.0000 </r>
       <r>    1.8491    0.0000 </r>
      </set>
      <set comment="kpoint 5">
       <r>  -21.9918    1.0000 </r>
       <r>  -18.3057    1.0000 </r>
       <r>  -14.5115    1.0000 </r>
       <r>  -10.0905    1.0000 </r>
       <r>   -8.7897    1.0000 </r>
       <r>   -6.5830    1.0000 </r>
       <r>   -6.0652    1.0000 </r>
       <r>   -6.0375    1.0000 </r>
       <r>   -0.1021    0.0000 </r>
       <r>    0.7519    0.0000 </r>
       <r>    1.5541    0.0000 </r>
       <r>    1.9460    0.0000 </r>
      </set>
      <set comment="kpoint 6">
       <r>  -21.9024    1.0000 </r>
       <r>  -18.6600    1.0000 </r>
       <r>  -14.0238    1.0000 </r>
       <r>   -9.9845    1.0000 </r>
       <r>   -8.7036    1.0000 </r>
       <r>   -6.9257    1.0000 </r>
       <r>   -6.3689    1.0000 </r>
       <r>   -6.2254    1.0000 </r>
       <r>    0.3669    0.0000 </r>
       <r>    0.8733    0.0000 </r>
       <r>    1.6770    0.0000 </r>
       <r>    2.0705    0.0000 </r>
      </set>
      <set comment="kpoint 7">
       <r>  -21.7933    1.0000 </r>
       <r>  -19.0034    1.0000 </r>
       <r>  -13.5189    1.0000 </r>
       <r>   -9.8553    1.0000 </r>
       <r>   -8.5993    1.0000 </r>
       <r>   -7.3205    1.0000 </r>
       <r>   -6.7119    1.0000 </r>
       <r>   -6.4068    1.0000 </r>
       <r>    0.8749    0.0000 </r>
       <r>    1.0217    0.0000 </r>
       <r>    1.8270    0.0000 </r>
       <r>    2.2227    0.0000 </r>
      </set>
      <set comment="kpoint 8">
       <r>  -21.6645    1.0000 </r>
       <r>  -19.3330    1.0000 </r>
       <r>  -13.0007    1.0000 </r>
       <r>   -9.7032    1.0000 </r>
       <r>   -8.4775    1.0000 </r>
       <r>   -7.7577    1.0000 </r>
       <r>   -7.0560    1.0000 </r>
       <r>   -6.6035    1.0000 </r>
       <r>    1.1971    0.0000 </r>
       <r>    1.4094    0.0000 </r>
       <r>    2.0042    0.0000 </r>
       <r>    2.4027    0.0000 </r>
      </set>
      <set comment="kpoint 9">
       <r>  -21.5162    1.0000 </r>
       <r>  -19.6470    1.0000 </r>
       <r>  -12.4722    1.0000 </r>
       <r>   -9.5284    1.0000 </r>
       <r>   -8.3391    1.0000 </r>
       <r>   -8.2286    1.0000 </r>
       <r>   -7.3943    1.0000 </r>
       <r>   -6.8098    1.0000 </r>
       <r>    1.3995    0.0000 </r>
       <r>    1.9604    0.0000 </r>
       <r>    2.2083    0.0000 </r>
       <r>    2.6102    0.0000 </r>
      </set>
      <set comment="kpoint 10">
       <r>  -21.3484    1.0000 </r>
       <r>  -19.9444    1.0000 </r>
       <r>  -11.9362    1.0000 </r>
       <r>   -9.3314    1.0000 </r>
       <r>   -8.7254    1.0000 </r>
       <r>   -8.1850    1.0000 </r>
       <r>   -7.7219    1.0000 </r>
       <r>   -7.0208    1.0000 </r>
       <r>    1.6287    0.0000 </r>
       <r>    2.4390    0.0000 </r>
       <r>    2.5188    0.0000 </r>
       <r>    2.8455    0.0000 </r>
      </set>
      <set comment="kpoint 11">
       <r>  -21.1614    1.0000 </r>
       <r>  -20.2244    1.0000 </r>
       <r>  -11.3950    1.0000 </r>
       <r>   -9.2414    1.0000 </r>
       <r>   -9.1127    1.0000 </r>
       <r>   -8.0357    1.0000 </r>
       <r>   -8.0164    1.0000 </r>
       <r>   -7.2322    1.0000 </r>
       <r>    1.8847    0.0000 </r>
       <r>    2.6958    0.0000 </r>
       <r>    3.0693    0.0000 </r>
       <r>    3.1084    0.0000 </r>
      </set>
      <set comment="kpoint 12">
[...]
       <r>   -9.2996    1.0000 </r>
       <r>   -5.5470    1.0000 </r>
       <r>   -5.5470    1.0000 </r>
       <r>   -0.4624    0.0000 </r>
       <r>   -0.4624    0.0000 </r>
       <r>    4.4188    0.0000 </r>
       <r>    4.4188    0.0000 </r>
      </set>
      <set comment="kpoint 209">
       <r>  -18.7101    1.0000 </r>
       <r>  -16.9036    1.0000 </r>
       <r>  -14.1503    1.0000 </r>
       <r>  -12.4987    1.0000 </r>
       <r>  -12.3498    1.0000 </r>
       <r>  -10.8291    1.0000 </r>
       <r>   -6.3337    1.0000 </r>
       <r>   -4.4510    1.0000 </r>
       <r>   -1.1157    0.0000 </r>
       <r>    1.0475    0.0000 </r>
       <r>    5.2890    0.0000 </r>
       <r>    6.0662    0.0000 </r>
      </set>
      <set comment="kpoint 210">
       <r>  -18.7007    1.0000 </r>
       <r>  -16.8962    1.0000 </r>
       <r>  -14.2243    1.0000 </r>
       <r>  -12.5677    1.0000 </r>
       <r>  -12.2681    1.0000 </r>
       <r>  -10.7624    1.0000 </r>
       <r>   -6.3252    1.0000 </r>
       <r>   -4.4545    1.0000 </r>
       <r>   -1.1234    0.0000 </r>
       <r>    1.0237    0.0000 </r>
       <r>    5.3022    0.0000 </r>
       <r>    6.0817    0.0000 </r>
      </set>
      <set comment="kpoint 211">
       <r>  -18.6724    1.0000 </r>
       <r>  -16.8744    1.0000 </r>
       <r>  -14.4140    1.0000 </r>
       <r>  -12.7475    1.0000 </r>
       <r>  -12.0553    1.0000 </r>
       <r>  -10.5906    1.0000 </r>
       <r>   -6.2998    1.0000 </r>
       <r>   -4.4657    1.0000 </r>
       <r>   -1.1447    0.0000 </r>
       <r>    0.9540    0.0000 </r>
       <r>    5.3416    0.0000 </r>
       <r>    6.1279    0.0000 </r>
      </set>
      <set comment="kpoint 212">
       <r>  -18.6255    1.0000 </r>
       <r>  -16.8394    1.0000 </r>
       <r>  -14.6637    1.0000 </r>
       <r>  -12.9902    1.0000 </r>
       <r>  -11.7672    1.0000 </r>
       <r>  -10.3633    1.0000 </r>
       <r>   -6.2577    1.0000 </r>
       <r>   -4.4859    1.0000 </r>
       <r>   -1.1751    0.0000 </r>
       <r>    0.8431    0.0000 </r>
       <r>    5.4067    0.0000 </r>
       <r>    6.2037    0.0000 </r>
      </set>
      <set comment="kpoint 213">
       <r>  -18.5599    1.0000 </r>
       <r>  -16.7941    1.0000 </r>
       <r>  -14.9342    1.0000 </r>
       <r>  -13.2628    1.0000 </r>
       <r>  -11.4424    1.0000 </r>
       <r>  -10.1168    1.0000 </r>
       <r>   -6.1995    1.0000 </r>
       <r>   -4.5172    1.0000 </r>
       <r>   -1.2079    0.0000 </r>
       <r>    0.6979    0.0000 </r>
       <r>    5.4948    0.0000 </r>
       <r>    6.1858    0.0000 </r>
      </set>
      <set comment="kpoint 214">
       <r>  -18.4760    1.0000 </r>
       <r>  -16.7440    1.0000 </r>
       <r>  -15.2008    1.0000 </r>
       <r>  -13.5467    1.0000 </r>
       <r>  -11.1032    1.0000 </r>
       <r>   -9.8742    1.0000 </r>
       <r>   -6.1257    1.0000 </r>
       <r>   -4.5619    1.0000 </r>
       <r>   -1.2350    0.0000 </r>
       <r>    0.5262    0.0000 </r>
       <r>    5.5618    0.0000 </r>
       <r>    5.7482    0.0000 </r>
      </set>
      <set comment="kpoint 215">
       <r>  -18.3739    1.0000 </r>
       <r>  -16.7006    1.0000 </r>
       <r>  -15.4418    1.0000 </r>
       <r>  -13.8318    1.0000 </r>
       <r>  -10.7638    1.0000 </r>
       <r>   -9.6511    1.0000 </r>
       <r>   -6.0374    1.0000 </r>
       <r>   -4.6221    1.0000 </r>
       <r>   -1.2487    0.0000 </r>
       <r>    0.3362    0.0000 </r>
       <r>    5.2332    0.0000 </r>
       <r>    5.7880    0.0000 </r>
      </set>
      <set comment="kpoint 216">
       <r>  -18.2542    1.0000 </r>
       <r>  -16.6864    1.0000 </r>
       <r>  -15.6294    1.0000 </r>
       <r>  -14.1118    1.0000 </r>
       <r>  -10.4351    1.0000 </r>
       <r>   -9.4598    1.0000 </r>
       <r>   -5.9358    1.0000 </r>
       <r>   -4.6991    1.0000 </r>
       <r>   -1.2421    0.0000 </r>
       <r>    0.1355    0.0000 </r>
       <r>    4.8706    0.0000 </r>
       <r>    5.8410    0.0000 </r>
      </set>
      <set comment="kpoint 217">
       <r>  -18.1172    1.0000 </r>
       <r>  -16.7329    1.0000 </r>
       <r>  -15.7284    1.0000 </r>
       <r>  -14.3826    1.0000 </r>
       <r>  -10.1268    1.0000 </r>
       <r>   -9.3107    1.0000 </r>
       <r>   -5.8222    1.0000 </r>
       <r>   -4.7930    1.0000 </r>
       <r>   -1.2102    0.0000 </r>
       <r>   -0.0688    0.0000 </r>
       <r>    4.5783    0.0000 </r>
       <r>    5.3939    0.0000 </r>
      </set>
      <set comment="kpoint 218">
       <r>  -17.9639    1.0000 </r>
       <r>  -16.8539    1.0000 </r>
       <r>  -15.7232    1.0000 </r>
       <r>  -14.6412    1.0000 </r>
       <r>   -9.8478    1.0000 </r>
       <r>   -9.2123    1.0000 </r>
       <r>   -5.6986    1.0000 </r>
       <r>   -4.9023    1.0000 </r>
       <r>   -1.1504    0.0000 </r>
       <r>   -0.2704    0.0000 </r>
       <r>    4.3683    0.0000 </r>
       <r>    5.0055    0.0000 </r>
      </set>
      <set comment="kpoint 219">
       <r>  -17.7952    1.0000 </r>
       <r>  -17.0266    1.0000 </r>
       <r>  -15.6351    1.0000 </r>
       <r>  -14.8847    1.0000 </r>
       <r>   -9.6070    1.0000 </r>
       <r>   -9.1712    1.0000 </r>
       <r>   -5.5673    1.0000 </r>
       <r>   -5.0243    1.0000 </r>
       <r>   -1.0621    0.0000 </r>
       <r>   -0.4636    0.0000 </r>
       <r>    4.2477    0.0000 </r>
       <r>    4.6856    0.0000 </r>
      </set>
      <set comment="kpoint 220">
       <r>  -17.6130    1.0000 </r>
       <r>  -17.2215    1.0000 </r>
       <r>  -15.4930    1.0000 </r>
       <r>  -15.1105    1.0000 </r>
       <r>   -9.4129    1.0000 </r>
       <r>   -9.1911    1.0000 </r>
       <r>   -5.4308    1.0000 </r>
       <r>   -5.1557    1.0000 </r>
       <r>   -0.9465    0.0000 </r>
       <r>   -0.6436    0.0000 </r>
       <r>    4.2201    0.0000 </r>
       <r>    4.4433    0.0000 </r>
      </set>
      <set comment="kpoint 221">
       <r>  -17.4201    1.0000 </r>
       <r>  -17.4201    1.0000 </r>
       <r>  -15.3150    1.0000 </r>
       <r>  -15.3150    1.0000 </r>
       <r>   -9.2725    1.0000 </r>
       <r>   -9.2725    1.0000 </r>
       <r>   -5.2924    1.0000 </r>
       <r>   -5.2924    1.0000 </r>
       <r>   -0.8059    0.0000 </r>
       <r>   -0.8059    0.0000 </r>
       <r>    4.2863    0.0000 </r>
       <r>    4.2863    0.0000 </r>
      </set>
      <set comment="kpoint 222">
       <r>  -18.2838    1.0000 </r>
       <r>  -17.3768    1.0000 </r>
       <r>  -13.7680    1.0000 </r>
       <r>  -12.9414    1.0000 </r>
       <r>  -12.0014    1.0000 </r>
       <r>  -11.2361    1.0000 </r>
       <r>   -5.8741    1.0000 </r>
       <r>   -4.9271    1.0000 </r>
       <r>   -0.6077    0.0000 </r>
       <r>    0.4761    0.0000 </r>
       <r>    5.8930    0.0000 </r>
       <r>    6.6285    0.0000 </r>
      </set>
      <set comment="kpoint 223">
       <r>  -18.2745    1.0000 </r>
       <r>  -17.3683    1.0000 </r>
       <r>  -13.8423    1.0000 </r>
       <r>  -13.0127    1.0000 </r>
       <r>  -11.9221    1.0000 </r>
       <r>  -11.1646    1.0000 </r>
       <r>   -5.8669    1.0000 </r>
       <r>   -4.9252    1.0000 </r>
       <r>   -0.6222    0.0000 </r>
       <r>    0.4544    0.0000 </r>
       <r>    5.9062    0.0000 </r>
       <r>    6.6449    0.0000 </r>
      </set>
      <set comment="kpoint 224">
       <r>  -18.2468    1.0000 </r>
       <r>  -17.3430    1.0000 </r>
       <r>  -14.0334    1.0000 </r>
       <r>  -13.1975    1.0000 </r>
       <r>  -11.7165    1.0000 </r>
       <r>  -10.9800    1.0000 </r>
       <r>   -5.8455    1.0000 </r>
       <r>   -4.9196    1.0000 </r>
       <r>   -0.6641    0.0000 </r>
       <r>    0.3908    0.0000 </r>
       <r>    5.9453    0.0000 </r>
       <r>    6.6936    0.0000 </r>
      </set>
      <set comment="kpoint 225">
       <r>  -18.2007    1.0000 </r>
       <r>  -17.3012    1.0000 </r>
       <r>  -14.2870    1.0000 </r>
       <r>  -13.4455    1.0000 </r>
       <r>  -11.4398    1.0000 </r>
       <r>  -10.7340    1.0000 </r>
       <r>   -5.8102    1.0000 </r>
       <r>   -4.9116    1.0000 </r>
       <r>   -0.7288    0.0000 </r>
       <r>    0.2901    0.0000 </r>
       <r>    6.0095    0.0000 </r>
       <r>    6.7732    0.0000 </r>
      </set>
      <set comment="kpoint 226">
       <r>  -18.1365    1.0000 </r>
       <r>  -17.2440    1.0000 </r>
       <r>  -14.5665    1.0000 </r>
       <r>  -13.7226    1.0000 </r>
       <r>  -11.1303    1.0000 </r>
       <r>  -10.4639    1.0000 </r>
       <r>   -5.7619    1.0000 </r>
       <r>   -4.9028    1.0000 </r>
       <r>   -0.8092    0.0000 </r>
       <r>    0.1589    0.0000 </r>
       <r>    6.0909    0.0000 </r>
       <r>    6.4740    0.0000 </r>
      </set>
      <set comment="kpoint 227">
       <r>  -18.0544    1.0000 </r>
       <r>  -17.1729    1.0000 </r>
       <r>  -14.8512    1.0000 </r>
       <r>  -14.0098    1.0000 </r>
       <r>  -10.8105    1.0000 </r>
       <r>  -10.1925    1.0000 </r>
       <r>   -5.7015    1.0000 </r>
       <r>   -4.8957    1.0000 </r>
       <r>   -0.8967    0.0000 </r>
       <r>    0.0053    0.0000 </r>
       <r>    5.9152    0.0000 </r>
       <r>    6.2518    0.0000 </r>
      </set>
      <set comment="kpoint 228">
       <r>  -17.9550    1.0000 </r>
       <r>  -17.0908    1.0000 </r>
       <r>  -15.1284    1.0000 </r>
       <r>  -14.2966    1.0000 </r>
       <r>  -10.4950    1.0000 </r>
       <r>   -9.9352    1.0000 </r>
       <r>   -5.6306    1.0000 </r>
       <r>   -4.8931    1.0000 </r>
       <r>   -0.9822    0.0000 </r>
       <r>   -0.1622    0.0000 </r>
       <r>    5.4612    0.0000 </r>
       <r>    6.0141    0.0000 </r>
      </set>
      <set comment="kpoint 229">
       <r>  -17.8389    1.0000 </r>
       <r>  -17.0033    1.0000 </r>
       <r>  -15.3868    1.0000 </r>
       <r>  -14.5768    1.0000 </r>
       <r>  -10.1952    1.0000 </r>
       <r>   -9.7041    1.0000 </r>
       <r>   -5.5509    1.0000 </r>
       <r>   -4.8983    1.0000 </r>
       <r>   -1.0566    0.0000 </r>
       <r>   -0.3354    0.0000 </r>
       <r>    5.0551    0.0000 </r>
       <r>    5.5427    0.0000 </r>
      </set>
      <set comment="kpoint 230">
       <r>  -17.7073    1.0000 </r>
       <r>  -16.9212    1.0000 </r>
       <r>  -15.6121    1.0000 </r>
       <r>  -14.8457    1.0000 </r>
       <r>   -9.9209    1.0000 </r>
       <r>   -9.5097    1.0000 </r>
       <r>   -5.4647    1.0000 </r>
       <r>   -4.9143    1.0000 </r>
       <r>   -1.1116    0.0000 </r>
       <r>   -0.5066    0.0000 </r>
       <r>    4.7165    0.0000 </r>
       <r>    5.1269    0.0000 </r>
      </set>
      <set comment="kpoint 231">
       <r>  -17.5618    1.0000 </r>
       <r>  -16.8662    1.0000 </r>
       <r>  -15.7806    1.0000 </r>
       <r>  -15.0994    1.0000 </r>
       <r>   -9.6816    1.0000 </r>
       <r>   -9.3611    1.0000 </r>
       <r>   -5.3748    1.0000 </r>
       <r>   -4.9435    1.0000 </r>
       <r>   -1.1405    0.0000 </r>
       <r>   -0.6685    0.0000 </r>
       <r>    4.4556    0.0000 </r>
       <r>    4.7765    0.0000 </r>
      </set>
      <set comment="kpoint 232">
       <r>  -17.4052    1.0000 </r>
       <r>  -16.8702    1.0000 </r>
       <r>  -15.8592    1.0000 </r>
       <r>  -15.3334    1.0000 </r>
       <r>   -9.4860    1.0000 </r>
       <r>   -9.2661    1.0000 </r>
       <r>   -5.2843    1.0000 </r>
       <r>   -4.9872    1.0000 </r>
       <r>   -1.1388    0.0000 </r>
       <r>   -0.8146    0.0000 </r>
       <r>    4.2803    0.0000 </r>
       <r>    4.5011    0.0000 </r>
      </set>
      <set comment="kpoint 233">
       <r>  -17.2428    1.0000 </r>
       <r>  -16.9500    1.0000 </r>
       <r>  -15.8300    1.0000 </r>
       <r>  -15.5418    1.0000 </r>
       <r>   -9.3420    1.0000 </r>
       <r>   -9.2300    1.0000 </r>
       <r>   -5.1969    1.0000 </r>
       <r>   -5.0452    1.0000 </r>
       <r>   -1.1042    0.0000 </r>
       <r>   -0.9391    0.0000 </r>
       <r>    4.1961    0.0000 </r>
       <r>    4.3087    0.0000 </r>
      </set>
      <set comment="kpoint 234">
       <r>  -17.0846    1.0000 </r>
       <r>  -17.0846    1.0000 </r>
       <r>  -15.7139    1.0000 </r>
       <r>  -15.7139    1.0000 </r>
       <r>   -9.2554    1.0000 </r>
       <r>   -9.2554    1.0000 </r>
       <r>   -5.1160    1.0000 </r>
       <r>   -5.1160    1.0000 </r>
       <r>   -1.0369    0.0000 </r>
       <r>   -1.0369    0.0000 </r>
       <r>    4.2058    0.0000 </r>
       <r>    4.2058    0.0000 </r>
      </set>
      <set comment="kpoint 235">
       <r>  -17.8383    1.0000 </r>
       <r>  -17.8383    1.0000 </r>
       <r>  -13.3648    1.0000 </r>
       <r>  -13.3648    1.0000 </r>
       <r>  -11.6283    1.0000 </r>
       <r>  -11.6283    1.0000 </r>
       <r>   -5.4036    1.0000 </r>
       <r>   -5.4036    1.0000 </r>
       <r>   -0.0764    0.0000 </r>
       <r>   -0.0764    0.0000 </r>
       <r>    6.5290    0.0000 </r>
       <r>    6.5290    0.0000 </r>
      </set>
      <set comment="kpoint 236">
       <r>  -17.8294    1.0000 </r>
       <r>  -17.8294    1.0000 </r>
       <r>  -13.4380    1.0000 </r>
       <r>  -13.4380    1.0000 </r>
       <r>  -11.5526    1.0000 </r>
       <r>  -11.5526    1.0000 </r>
       <r>   -5.3984    1.0000 </r>
       <r>   -5.3984    1.0000 </r>
       <r>   -0.0952    0.0000 </r>
       <r>   -0.0952    0.0000 </r>
       <r>    6.5420    0.0000 </r>
       <r>    6.5420    0.0000 </r>
      </set>
      <set comment="kpoint 237">
       <r>  -17.8025    1.0000 </r>
       <r>  -17.8025    1.0000 </r>
       <r>  -13.6267    1.0000 </r>
       <r>  -13.6267    1.0000 </r>
       <r>  -11.3566    1.0000 </r>
       <r>  -11.3566    1.0000 </r>
       <r>   -5.3830    1.0000 </r>
       <r>   -5.3830    1.0000 </r>
       <r>   -0.1501    0.0000 </r>
       <r>   -0.1501    0.0000 </r>
       <r>    6.5808    0.0000 </r>
       <r>    6.5808    0.0000 </r>
      </set>
      <set comment="kpoint 238">
       <r>  -17.7579    1.0000 </r>
       <r>  -17.7579    1.0000 </r>
       <r>  -13.8788    1.0000 </r>
       <r>  -13.8788    1.0000 </r>
       <r>  -11.0940    1.0000 </r>
       <r>  -11.0940    1.0000 </r>
       <r>   -5.3582    1.0000 </r>
       <r>   -5.3582    1.0000 </r>
       <r>   -0.2364    0.0000 </r>
       <r>   -0.2364    0.0000 </r>
       <r>    6.6431    0.0000 </r>
       <r>    6.6431    0.0000 </r>
      </set>
      <set comment="kpoint 239">
       <r>  -17.6959    1.0000 </r>
       <r>  -17.6959    1.0000 </r>
       <r>  -14.1588    1.0000 </r>
       <r>  -14.1588    1.0000 </r>
       <r>  -10.8029    1.0000 </r>
       <r>  -10.8029    1.0000 </r>
       <r>   -5.3251    1.0000 </r>
       <r>   -5.3251    1.0000 </r>
       <r>   -0.3473    0.0000 </r>
       <r>   -0.3473    0.0000 </r>
       <r>    6.6741    0.0000 </r>
       <r>    6.6741    0.0000 </r>
      </set>
      <set comment="kpoint 240">
       <r>  -17.6173    1.0000 </r>
       <r>  -17.6173    1.0000 </r>
       <r>  -14.4471    1.0000 </r>
       <r>  -14.4471    1.0000 </r>
       <r>  -10.5057    1.0000 </r>
       <r>  -10.5057    1.0000 </r>
       <r>   -5.2854    1.0000 </r>
       <r>   -5.2854    1.0000 </r>
       <r>   -0.4745    0.0000 </r>
       <r>   -0.4745    0.0000 </r>
       <r>    6.2128    0.0000 </r>
       <r>    6.2128    0.0000 </r>
      </set>
      <set comment="kpoint 241">
       <r>  -17.5230    1.0000 </r>
       <r>  -17.5230    1.0000 </r>
       <r>  -14.7330    1.0000 </r>
       <r>  -14.7330    1.0000 </r>
       <r>  -10.2176    1.0000 </r>
       <r>  -10.2176    1.0000 </r>
       <r>   -5.2412    1.0000 </r>
       <r>   -5.2412    1.0000 </r>
       <r>   -0.6091    0.0000 </r>
       <r>   -0.6091    0.0000 </r>
       <r>    5.7215    0.0000 </r>
       <r>    5.7215    0.0000 </r>
      </set>
      <set comment="kpoint 242">
       <r>  -17.4147    1.0000 </r>
       <r>  -17.4147    1.0000 </r>
       <r>  -15.0090    1.0000 </r>
       <r>  -15.0090    1.0000 </r>
       <r>   -9.9503    1.0000 </r>
       <r>   -9.9503    1.0000 </r>
       <r>   -5.1952    1.0000 </r>
       <r>   -5.1952    1.0000 </r>
       <r>   -0.7422    0.0000 </r>
       <r>   -0.7422    0.0000 </r>
       <r>    5.2798    0.0000 </r>
       <r>    5.2798    0.0000 </r>
      </set>
      <set comment="kpoint 243">
       <r>  -17.2952    1.0000 </r>
       <r>  -17.2952    1.0000 </r>
       <r>  -15.2689    1.0000 </r>
       <r>  -15.2689    1.0000 </r>
       <r>   -9.7141    1.0000 </r>
       <r>   -9.7141    1.0000 </r>
       <r>   -5.1506    1.0000 </r>
       <r>   -5.1506    1.0000 </r>
       <r>   -0.8653    0.0000 </r>
       <r>   -0.8653    0.0000 </r>
       <r>    4.9001    0.0000 </r>
       <r>    4.9001    0.0000 </r>
      </set>
      <set comment="kpoint 244">
       <r>  -17.1699    1.0000 </r>
       <r>  -17.1699    1.0000 </r>
       <r>  -15.5051    1.0000 </r>
       <r>  -15.5051    1.0000 </r>
       <r>   -9.5184    1.0000 </r>
       <r>   -9.5184    1.0000 </r>
       <r>   -5.1109    1.0000 </r>
       <r>   -5.1109    1.0000 </r>
       <r>   -0.9706    0.0000 </r>
       <r>   -0.9706    0.0000 </r>
       <r>    4.5924    0.0000 </r>
       <r>    4.5924    0.0000 </r>
      </set>
      <set comment="kpoint 245">
       <r>  -17.0494    1.0000 </r>
       <r>  -17.0494    1.0000 </r>
       <r>  -15.7058    1.0000 </r>
       <r>  -15.7058    1.0000 </r>
       <r>   -9.3716    1.0000 </r>
       <r>   -9.3716    1.0000 </r>
       <r>   -5.0794    1.0000 </r>
       <r>   -5.0794    1.0000 </r>
       <r>   -1.0513    0.0000 </r>
       <r>   -1.0513    0.0000 </r>
       <r>    4.3652    0.0000 </r>
       <r>    4.3652    0.0000 </r>
      </set>
      <set comment="kpoint 246">
       <r>  -16.9541    1.0000 </r>
       <r>  -16.9541    1.0000 </r>
       <r>  -15.8494    1.0000 </r>
       <r>  -15.8494    1.0000 </r>
       <r>   -9.2805    1.0000 </r>
       <r>   -9.2805    1.0000 </r>
       <r>   -5.0591    1.0000 </r>
       <r>   -5.0591    1.0000 </r>
       <r>   -1.1020    0.0000 </r>
       <r>   -1.1020    0.0000 </r>
       <r>    4.2258    0.0000 </r>
       <r>    4.2258    0.0000 </r>
      </set>
      <set comment="kpoint 247">
       <r>  -16.9160    1.0000 </r>
       <r>  -16.9160    1.0000 </r>
       <r>  -15.9037    1.0000 </r>
       <r>  -15.9037    1.0000 </r>
       <r>   -9.2496    1.0000 </r>
       <r>   -9.2496    1.0000 </r>
       <r>   -5.0521    1.0000 </r>
       <r>   -5.0521    1.0000 </r>
       <r>   -1.1193    0.0000 </r>
       <r>   -1.1193    0.0000 </r>
       <r>    4.1788    0.0000 </r>
       <r>    4.1788    0.0000 </r>
      </set>
     </set>
    </set>
   </array>
  </eigenvalues>
  <separator name="orbital magnetization" >
   <v name="MAGDIPOLOUT">      0.00000000      0.00000000      0.00000000</v>
  </separator>
 </calculation>
 <structure name="finalpos" >
  <crystal>
   <varray name="basis" >
    <v>       4.33671909       0.00000000       0.00000000 </v>
    <v>       0.00000000       2.46093969       0.00000000 </v>
    <v>       0.00000000       0.00000000      19.75542706 </v>
   </varray>
   <i name="volume">    210.83790140 </i>
   <varray name="rec_basis" >
    <v>       0.23058907       0.00000000       0.00000000 </v>
    <v>       0.00000000       0.40634884       0.00000000 </v>
    <v>       0.00000000       0.00000000       0.05061900 </v>
   </varray>
  </crystal>
  <varray name="positions" >
   <v>       0.99964748       0.00000000       0.00000000 </v>
   <v>       0.16701919       0.50000000      -0.00000000 </v>
   <v>       0.49964748       0.50000000       0.00000000 </v>
   <v>       0.66701919       0.00000000      -0.00000000 </v>
  </varray>
 </structure>
</modeling>
