gr                                      
           1
     4.336719    0.000000    0.000000
     0.000000    2.460940    0.000000
     0.000000    0.000000   19.755427
   C 
   4
Direct configuration=     1
   0.99964215  0.00000000  0.00000000
   0.16702452  0.50000000  0.00000000
   0.49964215  0.50000000  0.00000000
   0.66702452  0.00000000  0.00000000
Direct configuration=     2
   0.99966825  0.00000000  0.00000000
   0.16699841  0.50000000  0.00000000
   0.49966825  0.50000000  0.00000000
   0.66699841  0.00000000  0.00000000
Direct configuration=     3
   0.99964748  0.00000000 -0.00000000
   0.16701918  0.50000000  0.00000000
   0.49964748  0.50000000 -0.00000000
   0.66701918  0.00000000  0.00000000
Direct configuration=     4
   0.99964746  0.00000000 -0.00000000
   0.16701920  0.50000000  0.00000000
   0.49964746  0.50000000 -0.00000000
   0.66701920  0.00000000  0.00000000
Direct configuration=     5
   0.99964747  0.00000000 -0.00000000
   0.16701919  0.50000000  0.00000000
   0.49964747  0.50000000 -0.00000000
   0.66701919  0.00000000  0.00000000
Direct configuration=     6
   0.99964748  0.00000000  0.00000000
   0.16701919  0.50000000 -0.00000000
   0.49964748  0.50000000  0.00000000
   0.66701919  0.00000000 -0.00000000
