    4    4  400    1
  0.5270948E+02  0.4337360E-09  0.2460874E-09  0.1975304E-08  0.5000000E-15
  1.000000000000000E-004
  CAR 
 gr                                      
     16    247     12
 
  0.0000000E+00  0.0000000E+00  0.0000000E+00  0.1157407E-02
    1      -22.149944
    2      -17.166453
    3      -15.891315
    4      -10.278852
    5       -8.942381
    6       -5.922029
    7       -5.748982
    8       -5.247612
    9       -1.144261
   10        0.536293
   11        1.335661
   12        1.724861
 
  0.4166667E-01  0.0000000E+00  0.0000000E+00  0.2314815E-02
    1      -22.139992
    2      -17.300735
    3      -15.741938
    4      -10.267012
    5       -8.932643
    6       -5.965721
    7       -5.770026
    8       -5.309343
    9       -1.066687
   10        0.549768
   11        1.349324
   12        1.738693
 
  0.8333333E-01  0.0000000E+00  0.0000000E+00  0.2314815E-02
    1      -22.110144
    2      -17.598381
    3      -15.399089
    4      -10.231509
    5       -8.903481
    6       -6.094825
    7       -5.832038
    8       -5.481518
    9       -0.847144
   10        0.590198
   11        1.390308
   12        1.780190
 
  0.1250000E+00  0.0000000E+00  0.0000000E+00  0.2314815E-02
    1      -22.060418
    2      -17.947239
    3      -14.975156
    4      -10.172402
    5       -8.855047
    6       -6.303795
    7       -5.931832
    8       -5.734588
    9       -0.515671
   10        0.657597
   11        1.458600
   12        1.849354
 
  0.1666667E+00  0.0000000E+00  0.0000000E+00  0.2314815E-02
    1      -21.990848
    2      -18.306009
    3      -14.511852
    4      -10.089788
    5       -8.787601
    6       -6.584457
    7       -6.064638
    8       -6.038342
    9       -0.103308
   10        0.751980
   11        1.554175
   12        1.946188
 
  0.2083333E+00  0.0000000E+00  0.0000000E+00  0.2314815E-02
    1      -21.901486
    2      -18.660116
    3      -14.024342
    4       -9.983809
    5       -8.701521
    6       -6.927189
    7       -6.369574
    8       -6.224728
    9        0.365545
   10        0.873356
   11        1.676994
   12        2.070695
 
  0.2500000E+00  0.0000000E+00  0.0000000E+00  0.2314815E-02
    1      -21.792394
    2      -19.003426
    3      -13.519541
    4       -9.854656
    5       -8.597308
    6       -7.321977
    7       -6.712418
    8       -6.406014
    9        0.873416
   10        1.021720
   11        1.826997
   12        2.222875
 
  0.2916667E+00  0.0000000E+00  0.0000000E+00  0.2314815E-02
    1      -21.663656
    2      -19.332896
    3      -13.001496
    4       -9.702573
    5       -8.475610
    6       -7.759203
    7       -7.056386
    8       -6.602520
    9        1.197054
   10        1.407706
   11        2.004091
   12        2.402726
 
  0.3333333E+00  0.0000000E+00  0.0000000E+00  0.2314815E-02
    1      -21.515370
    2      -19.646803
    3      -12.473176
    4       -9.527876
    5       -8.337235
    6       -8.230085
    7       -7.394504
    8       -6.808701
    9        1.399324
   10        1.958581
   11        2.208121
   12        2.610244
 
  0.3750000E+00  0.0000000E+00  0.0000000E+00  0.2314815E-02
    1      -21.347657
    2      -19.944066
    3      -11.937196
    4       -9.330956
    5       -8.726873
    6       -8.183182
    7       -7.722040
    8       -7.019600
    9        1.628482
   10        2.438800
   11        2.516788
   12        2.845420
 
  0.4166667E+00  0.0000000E+00  0.0000000E+00  0.2314815E-02
    1      -21.160660
    2      -20.223945
    3      -11.396156
    4       -9.242864
    5       -9.112309
    6       -8.035690
    7       -8.014677
    8       -7.230906
    9        1.884460
   10        2.695510
   11        3.067239
   12        3.108242
 
  0.4583333E+00  0.0000000E+00  0.0000000E+00  0.2314815E-02
    1      -20.954553
    2      -20.485907
    3      -10.852842
    4       -9.772325
    5       -8.872553
    6       -8.333083
    7       -7.833205
    8       -7.438931
    9        2.167169
   10        2.812235
   11        2.976528
   12        3.398931
 
  0.5000000E+00  0.0000000E+00  0.0000000E+00  0.1157407E-02
    1      -20.729550
    2      -20.729550
    3      -10.310372
    4      -10.310372
    5       -8.612475
    6       -8.612475
    7       -7.640566
    8       -7.640566
    9        2.476486
   10        2.476486
   11        3.274099
   12        3.274099
 
  0.0000000E+00  0.2777778E-01  0.0000000E+00  0.2314815E-02
    1      -22.136177
    2      -17.154556
    3      -15.879602
    4      -10.262471
    5       -9.005031
    6       -5.949709
    7       -5.807181
    8       -5.230943
    9       -1.147271
   10        0.554955
   11        1.354532
   12        1.743966
 
  0.4166667E-01  0.2777778E-01  0.0000000E+00  0.4629630E-02
    1      -22.126226
    2      -17.288702
    3      -15.730409
    4      -10.250635
    5       -8.995280
    6       -5.995304
    7       -5.825691
    8       -5.292800
    9       -1.069678
   10        0.568430
   11        1.368194
   12        1.757798
 
  0.8333333E-01  0.2777778E-01  0.0000000E+00  0.4629630E-02
    1      -22.096382
    2      -17.586110
    3      -15.387938
    4      -10.215144
    5       -8.966077
    6       -6.126751
    7       -5.883580
    8       -5.465268
    9       -0.850167
   10        0.608861
   11        1.409176
   12        1.799295
 
  0.1250000E+00  0.2777778E-01  0.0000000E+00  0.4629630E-02
    1      -22.046664
    2      -17.934749
    3      -14.964467
    4      -10.156057
    5       -8.917572
    6       -6.335526
    7       -5.980934
    8       -5.718649
    9       -0.518927
   10        0.676262
   11        1.477464
   12        1.868460
 
  0.1666667E+00  0.2777778E-01  0.0000000E+00  0.4629630E-02
    1      -21.977105
    2      -18.293330
    3      -14.501702
    4      -10.073471
    5       -8.850020
    6       -6.613628
    7       -6.113187
    8       -6.022639
    9       -0.107089
   10        0.770648
   11        1.573034
   12        1.965295
 
  0.2083333E+00  0.2777778E-01  0.0000000E+00  0.4629630E-02
    1      -21.887758
    2      -18.647275
    3      -14.014822
    4       -9.967528
    5       -8.763790
    6       -6.952411
    7       -6.354015
    8       -6.273964
    9        0.360927
   10        0.892029
   11        1.695848
   12        2.089804
 
  0.2500000E+00  0.2777778E-01  0.0000000E+00  0.4629630E-02
    1      -21.778684
    2      -18.990445
    3      -13.510763
    4       -9.838418
    5       -8.659378
    6       -7.342697
    7       -6.696923
    8       -6.456596
    9        0.867667
   10        1.040399
   11        1.845845
   12        2.241985
 
  0.2916667E+00  0.2777778E-01  0.0000000E+00  0.4629630E-02
    1      -21.649968
    2      -19.319796
    3      -12.993592
    4       -9.686387
    5       -8.537416
    6       -7.775407
    7       -7.040895
    8       -6.654719
    9        1.215741
   10        1.400571
   11        2.022934
   12        2.421839
 
  0.3333333E+00  0.2777778E-01  0.0000000E+00  0.4629630E-02
    1      -21.501709
    2      -19.633599
    3      -12.466306
    4       -9.511749
    5       -8.398701
    6       -8.242064
    7       -7.378978
    8       -6.862548
    9        1.418021
   10        1.949879
   11        2.226960
   12        2.629360
 
  0.3750000E+00  0.2777778E-01  0.0000000E+00  0.4629630E-02
    1      -21.334028
    2      -19.930772
    3      -11.931553
    4       -9.314896
    5       -8.735061
    6       -8.244216
    7       -7.706454
    8       -7.074995
    9        1.647190
   10        2.457643
   11        2.506531
   12        2.864541
 
  0.4166667E+00  0.2777778E-01  0.0000000E+00  0.4629630E-02
    1      -21.147068
    2      -20.210573
    3      -11.391970
    4       -9.247738
    5       -9.096321
    6       -8.075165
    7       -8.020028
    8       -7.287683
    9        1.903181
   10        2.714369
   11        3.056420
   12        3.127369
 
  0.4583333E+00  0.2777778E-01  0.0000000E+00  0.4629630E-02
    1      -20.941005
    2      -20.472468
    3      -10.850387
    4       -9.774349
    5       -8.856643
    6       -8.317340
    7       -7.893015
    8       -7.496903
    9        2.185906
   10        2.831028
   11        2.995411
   12        3.417830
 
  0.5000000E+00  0.2777778E-01  0.0000000E+00  0.2314815E-02
    1      -20.716052
    2      -20.716052
    3      -10.309970
    4      -10.309970
    5       -8.596648
    6       -8.596648
    7       -7.699544
    8       -7.699544
    9        2.495245
   10        2.495245
   11        3.292789
   12        3.292789
 
  0.0000000E+00  0.5555556E-01  0.0000000E+00  0.2314815E-02
    1      -22.094885
    2      -17.118869
    3      -15.844608
    4      -10.213363
    5       -9.187931
    6       -6.032235
    7       -5.977052
    8       -5.180958
    9       -1.157115
   10        0.610943
   11        1.411138
   12        1.801283
 
  0.4166667E-01  0.5555556E-01  0.0000000E+00  0.4629630E-02
    1      -22.084939
    2      -17.252613
    3      -15.695962
    4      -10.201539
    5       -9.178136
    6       -6.091750
    7       -5.979787
    8       -5.243204
    9       -1.079464
   10        0.624418
   11        1.424798
   12        1.815115
 
  0.8333333E-01  0.5555556E-01  0.0000000E+00  0.4629630E-02
    1      -22.055108
    2      -17.549317
    3      -15.354633
    4      -10.166084
    5       -9.148795
    6       -6.232602
    7       -6.023027
    8       -5.416575
    9       -0.860042
   10        0.664849
   11        1.465773
   12        1.856612
 
  0.1250000E+00  0.5555556E-01  0.0000000E+00  0.4629630E-02
    1      -22.005412
    2      -17.897300
    3      -14.932562
    4      -10.107058
    5       -9.100052
    6       -6.439895
    7       -6.114076
    8       -5.670907
    9       -0.529507
   10        0.732252
   11        1.534050
   12        1.925778
 
  0.1666667E+00  0.5555556E-01  0.0000000E+00  0.4629630E-02
    1      -21.935888
    2      -18.255313
    3      -14.471440
    4      -10.024557
    5       -9.032146
    6       -6.709127
    7       -6.245936
    8       -5.975620
    9       -0.119273
   10        0.826644
   11        1.629604
   12        2.022615
 
  0.2083333E+00  0.5555556E-01  0.0000000E+00  0.4629630E-02
    1      -21.846584
    2      -18.608770
    3      -13.986491
    4       -9.918723
    5       -8.945423
    6       -7.034892
    7       -6.410000
    8       -6.307432
    9        0.346182
   10        0.948035
   11        1.752399
   12        2.147127
 
  0.2500000E+00  0.5555556E-01  0.0000000E+00  0.4629630E-02
    1      -21.737566
    2      -18.951522
    3      -13.484708
    4       -9.789746
    5       -8.840348
    6       -7.410512
    7       -6.650530
    8       -6.597851
    9        0.849462
   10        1.096421
   11        1.902376
   12        2.299313
 
  0.2916667E+00  0.5555556E-01  0.0000000E+00  0.4629630E-02
    1      -21.608918
    2      -19.280510
    3      -12.970231
    4       -9.637872
    5       -8.717516
    6       -7.828587
    7       -6.994512
    8       -6.801900
    9        1.271783
   10        1.378123
   11        2.079447
   12        2.479174
 
  0.3333333E+00  0.5555556E-01  0.0000000E+00  0.4629630E-02
    1      -21.460739
    2      -19.594001
    3      -12.446146
    4       -9.463414
    5       -8.577677
    6       -8.281612
    7       -7.332484
    8       -7.015606
    9        1.474086
   10        1.922608
   11        2.283464
   12        2.686703
 
  0.3750000E+00  0.5555556E-01  0.0000000E+00  0.4629630E-02
    1      -21.293153
    2      -19.890903
    3      -11.915202
    4       -9.266763
    5       -8.762435
    6       -8.421758
    7       -7.659772
    8       -7.233466
    9        1.703281
   10        2.474367
   11        2.514157
   12        2.921896
 
  0.4166667E+00  0.5555556E-01  0.0000000E+00  0.4629630E-02
    1      -21.106305
    2      -20.170471
    3      -11.380160
    4       -9.264524
    5       -9.048411
    6       -8.250898
    7       -7.973117
    8       -7.450915
    9        1.959302
   10        2.770930
   11        3.021716
   12        3.184740
 
  0.4583333E+00  0.5555556E-01  0.0000000E+00  0.4629630E-02
    1      -20.900372
    2      -20.432162
    3      -10.843993
    4       -9.782077
    5       -8.808972
    6       -8.270177
    7       -8.066490
    8       -7.664198
    9        2.242062
   10        2.887309
   11        3.052050
   12        3.475723
 
  0.5000000E+00  0.5555556E-01  0.0000000E+00  0.2314815E-02
    1      -20.675571
    2      -20.675571
    3      -10.310030
    4      -10.310030
    5       -8.549228
    6       -8.549228
    7       -7.870232
    8       -7.870232
    9        2.551449
   10        2.551449
   11        3.348750
   12        3.348750
 
  0.0000000E+00  0.8333333E-01  0.0000000E+00  0.2314815E-02
    1      -22.026103
    2      -17.059405
    3      -15.786794
    4      -10.131631
    5       -9.477338
    6       -6.245869
    7       -6.168065
    8       -5.097721
    9       -1.176243
   10        0.704259
   11        1.505458
   12        1.896812
 
  0.4166667E-01  0.8333333E-01  0.0000000E+00  0.4629630E-02
    1      -22.016164
    2      -17.192502
    3      -15.639046
    4      -10.119828
    5       -9.467453
    6       -6.306167
    7       -6.167046
    8       -5.160652
    9       -1.098475
   10        0.717732
   11        1.519113
   12        1.910644
 
  0.8333333E-01  0.8333333E-01  0.0000000E+00  0.4629630E-02
    1      -21.986356
    2      -17.488054
    3      -15.299635
    4      -10.084436
    5       -9.437838
    6       -6.445711
    7       -6.203165
    8       -5.335610
    9       -0.879176
   10        0.758160
   11        1.560075
   12        1.952141
 
  0.1250000E+00  0.8333333E-01  0.0000000E+00  0.4629630E-02
    1      -21.936701
    2      -17.834951
    3      -14.879957
    4      -10.025514
    5       -9.388616
    6       -6.643842
    7       -6.290773
    8       -5.591598
    9       -0.549841
   10        0.825560
   11        1.628330
   12        2.021307
 
  0.1666667E+00  0.8333333E-01  0.0000000E+00  0.4629630E-02
    1      -21.867233
    2      -18.192019
    3      -14.421673
    4       -9.943159
    5       -9.319998
    6       -6.895369
    7       -6.425225
    8       -5.897559
    9       -0.142370
   10        0.919951
   11        1.723855
   12        2.118145
 
  0.2083333E+00  0.8333333E-01  0.0000000E+00  0.4629630E-02
    1      -21.778002
    2      -18.544660
    3      -13.940085
    4       -9.837512
    5       -9.232286
    6       -7.196893
    7       -6.597510
    8       -6.230111
    9        0.318663
   10        1.041347
   11        1.846614
   12        2.242660
 
  0.2500000E+00  0.8333333E-01  0.0000000E+00  0.4629630E-02
    1      -21.669076
    2      -18.886709
    3      -13.442296
    4       -9.708764
    5       -9.125884
    6       -7.544889
    7       -6.797307
    8       -6.573523
    9        0.815966
   10        1.189744
   11        1.996554
   12        2.394852
 
  0.2916667E+00  0.8333333E-01  0.0000000E+00  0.4629630E-02
    1      -21.540541
    2      -19.215090
    3      -12.932581
    4       -9.557160
    5       -9.001311
    6       -7.934962
    7       -7.014822
    8       -6.917509
    9        1.337283
   10        1.365123
   11        2.173589
   12        2.574720
 
  0.3333333E+00  0.8333333E-01  0.0000000E+00  0.4629630E-02
    1      -21.392497
    2      -19.528057
    3      -12.414193
    4       -9.383012
    5       -8.859218
    6       -8.361714
    7       -7.255279
    8       -7.241794
    9        1.567448
   10        1.873356
   11        2.377585
   12        2.782261
 
  0.3750000E+00  0.8333333E-01  0.0000000E+00  0.4629630E-02
    1      -21.225069
    2      -19.824505
    3      -11.890088
    4       -9.186709
    5       -8.819105
    6       -8.700411
    7       -7.582236
    8       -7.471713
    9        1.796668
   10        2.416301
   11        2.608291
   12        3.017467
 
  0.4166667E+00  0.8333333E-01  0.0000000E+00  0.4629630E-02
    1      -21.038408
    2      -20.103681
    3      -11.363272
    4       -9.300958
    5       -8.968739
    6       -8.525881
    7       -7.895176
    8       -7.699590
    9        2.052716
   10        2.865149
   11        2.957142
   12        3.280331
 
  0.4583333E+00  0.8333333E-01  0.0000000E+00  0.4629630E-02
    1      -20.832694
    2      -20.365033
    3      -10.837014
    4       -9.801378
    5       -8.729714
    6       -8.336845
    7       -8.191799
    8       -7.921605
    9        2.335506
   10        2.980849
   11        3.146428
   12        3.461959
 
  0.5000000E+00  0.8333333E-01  0.0000000E+00  0.2314815E-02
    1      -20.608146
    2      -20.608146
    3      -10.314988
    4      -10.314988
    5       -8.470405
    6       -8.470405
    7       -8.134800
    8       -8.134800
    9        2.644931
   10        2.644931
   11        3.441454
   12        3.441454
 
  0.0000000E+00  0.1111111E+00  0.0000000E+00  0.2314815E-02
    1      -21.929892
    2      -16.976182
    3      -15.707022
    4      -10.017454
    5       -9.854162
    6       -6.596312
    7       -6.354653
    8       -4.981338
    9       -1.208724
   10        0.834905
   11        1.637451
   12        2.030556
 
  0.4166667E-01  0.1111111E+00  0.0000000E+00  0.4629630E-02
    1      -21.919965
    2      -17.108426
    3      -15.560512
    4      -10.005681
    5       -9.844117
    6       -6.644976
    7       -6.361359
    8       -5.045319
    9       -1.130742
   10        0.848374
   11        1.651099
   12        2.044387
 
  0.8333333E-01  0.1111111E+00  0.0000000E+00  0.4629630E-02
    1      -21.890190
    2      -17.402419
    3      -15.223825
    4       -9.970381
    5       -9.814011
    6       -6.773707
    7       -6.397137
    8       -5.222685
    9       -0.911542
   10        0.888790
   11        1.692039
   12        2.085883
 
  0.1250000E+00  0.1111111E+00  0.0000000E+00  0.4629630E-02
    1      -21.840589
    2      -17.747812
    3      -14.807644
    4       -9.911610
    5       -9.763937
    6       -6.960210
    7       -6.479528
    8       -5.481154
    9       -0.583913
   10        0.956172
   11        1.760259
   12        2.155046
 
  0.1666667E+00  0.1111111E+00  0.0000000E+00  0.4629630E-02
    1      -21.771199
    2      -18.103553
    3      -14.353584
    4       -9.829468
    5       -9.694048
    6       -7.192868
    7       -6.612397
    8       -5.788949
    9       -0.180480
   10        1.050546
   11        1.855735
   12        2.251883
 
  0.2083333E+00  0.1111111E+00  0.0000000E+00  0.4629630E-02
    1      -21.682071
    2      -18.455045
    3      -13.877065
    4       -9.724095
    5       -9.604566
    6       -7.466086
    7       -6.791031
    8       -6.122567
    9        0.274068
   10        1.171927
   11        1.978435
   12        2.376397
 
  0.2500000E+00  0.1111111E+00  0.0000000E+00  0.4629630E-02
    1      -21.573276
    2      -18.796100
    3      -13.385374
    4       -9.595682
    5       -9.495780
    6       -7.777397
    7       -7.005773
    8       -6.466410
    9        0.762601
   10        1.320316
   11        2.128307
   12        2.528592
 
  0.2916667E+00  0.1111111E+00  0.0000000E+00  0.4629630E-02
    1      -21.444898
    2      -19.123624
    3      -12.883023
    4       -9.444474
    5       -9.368057
    6       -8.125786
    7       -7.244615
    8       -6.810372
    9        1.273132
   10        1.495695
   11        2.305278
   12        2.708467
 
  0.3333333E+00  0.1111111E+00  0.0000000E+00  0.4629630E-02
    1      -21.297044
    2      -19.435849
    3      -12.373567
    4       -9.270781
    5       -9.221848
    6       -8.510102
    7       -7.495683
    8       -7.147817
    9        1.698025
   10        1.796769
   11        2.509226
   12        2.916017
 
  0.3750000E+00  0.1111111E+00  0.0000000E+00  0.4629630E-02
    1      -21.129840
    2      -19.731656
    3      -11.860342
    4       -9.074990
    5       -9.057699
    6       -8.927827
    7       -7.749156
    8       -7.474266
    9        1.927251
   10        2.326288
   11        2.739938
   12        3.151236
 
  0.4166667E+00  0.1111111E+00  0.0000000E+00  0.4629630E-02
    1      -20.943442
    2      -20.010277
    3      -11.346831
    4       -9.374788
    5       -8.876271
    6       -8.857585
    7       -7.997996
    8       -7.786595
    9        2.183301
   10        2.854790
   11        2.996925
   12        3.414116
 
  0.4583333E+00  0.1111111E+00  0.0000000E+00  0.4629630E-02
    1      -20.738036
    2      -20.271149
    3      -10.836884
    4       -9.845684
    5       -8.678376
    6       -8.619170
    7       -8.237599
    8       -8.082562
    9        2.466090
   10        3.111420
   11        3.278506
   12        3.369853
 
  0.5000000E+00  0.1111111E+00  0.0000000E+00  0.2314815E-02
    1      -20.513847
    2      -20.513847
    3      -10.334860
    4      -10.334860
    5       -8.465034
    6       -8.465034
    7       -8.360505
    8       -8.360505
    9        2.775508
   10        2.775508
   11        3.568150
   12        3.568150
 
  0.0000000E+00  0.1388889E+00  0.0000000E+00  0.2314815E-02
    1      -21.806339
    2      -16.869233
    3      -15.606756
    4      -10.297416
    5       -9.871088
    6       -7.010015
    7       -6.588514
    8       -4.831962
    9       -1.260168
   10        1.002877
   11        1.807060
   12        2.202516
 
  0.4166667E-01  0.1388889E+00  0.0000000E+00  0.4629630E-02
    1      -21.796426
    2      -17.000476
    3      -15.461803
    4      -10.287096
    5       -9.859356
    6       -7.056503
    7       -6.592768
    8       -4.897473
    9       -1.181790
   10        1.016337
   11        1.820697
   12        2.216346
 
  0.8333333E-01  0.1388889E+00  0.0000000E+00  0.4629630E-02
    1      -21.766693
    2      -17.292561
    3      -15.128722
    4      -10.256149
    5       -9.824179
    6       -7.182020
    7       -6.618472
    8       -5.078301
    9       -0.962530
   10        1.056729
   11        1.861602
   12        2.257837
 
  0.1250000E+00  0.1388889E+00  0.0000000E+00  0.4629630E-02
    1      -21.717163
    2      -17.636048
    3      -14.717363
    4      -10.204606
    5       -9.765616
    6       -7.363786
    7       -6.685292
    8       -5.340261
    9       -0.637084
   10        1.124074
   11        1.929764
   12        2.326995
 
  0.1666667E+00  0.1388889E+00  0.0000000E+00  0.4629630E-02
    1      -21.647875
    2      -17.990080
    3      -14.269284
    4      -10.132517
    5       -9.683764
    6       -7.586329
    7       -6.803241
    8       -5.650575
    9       -0.239072
   10        1.218402
   11        2.025161
   12        2.423824
 
  0.2083333E+00  0.1388889E+00  0.0000000E+00  0.4629630E-02
    1      -21.558882
    2      -18.340078
    3      -13.800097
    4      -10.039942
    5       -9.578766
    6       -7.840779
    7       -6.973322
    8       -5.985610
    9        0.206704
   10        1.339737
   11        2.147760
   12        2.548333
 
  0.2500000E+00  0.1388889E+00  0.0000000E+00  0.4629630E-02
    1      -21.450254
    2      -18.679839
    3      -13.317399
    4       -9.926943
    5       -9.450811
    6       -8.122527
    7       -7.190153
    8       -6.329980
    9        0.683382
   10        1.488084
   11        2.297515
   12        2.700525
 
  0.2916667E+00  0.1388889E+00  0.0000000E+00  0.4629630E-02
    1      -21.322080
    2      -19.006243
    3      -12.826135
    4       -9.793569
    5       -9.300144
    6       -8.430115
    7       -7.443728
    8       -6.673846
    9        1.179356
   10        1.663429
   11        2.474361
   12        2.880400
 
  0.3333333E+00  0.1388889E+00  0.0000000E+00  0.4629630E-02
    1      -21.174470
    2      -19.317500
    3      -12.330429
    4       -9.639837
    5       -9.127074
    6       -8.764437
    7       -7.721059
    8       -7.010791
    9        1.686169
   10        1.865731
   11        2.678200
   12        3.087955
 
  0.3750000E+00  0.1388889E+00  0.0000000E+00  0.4629630E-02
    1      -21.007557
    2      -19.612470
    3      -11.834358
    4       -9.465716
    5       -9.127513
    6       -8.931987
    7       -8.008191
    8       -7.336500
    9        2.094929
   10        2.197196
   11        2.908871
   12        3.323184
 
  0.4166667E+00  0.1388889E+00  0.0000000E+00  0.4629630E-02
    1      -20.821501
    2      -19.890367
    3      -11.342351
    4       -9.520683
    5       -9.271123
    6       -8.715359
    7       -8.292599
    8       -7.647959
    9        2.350945
   10        2.706788
   11        3.166020
   12        3.586075
 
  0.4583333E+00  0.1388889E+00  0.0000000E+00  0.4629630E-02
    1      -20.616495
    2      -20.150615
    3      -10.859387
    4       -9.943026
    5       -9.055974
    6       -8.565108
    7       -8.477788
    8       -7.943002
    9        2.633685
   10        3.209188
   11        3.278855
   12        3.448204
 
  0.5000000E+00  0.1388889E+00  0.0000000E+00  0.2314815E-02
    1      -20.392773
    2      -20.392773
    3      -10.391012
    4      -10.391012
    5       -8.820373
    6       -8.820373
    7       -8.220019
    8       -8.220019
    9        2.943035
   10        2.943035
   11        3.668663
   12        3.668684
 
  0.0000000E+00  0.1666667E+00  0.0000000E+00  0.2314815E-02
    1      -21.655561
    2      -16.738595
    3      -15.488439
    4      -10.786422
    5       -9.692874
    6       -7.469987
    7       -6.865332
    8       -4.649795
    9       -1.337484
   10        1.208155
   11        2.014202
   12        2.412694
 
  0.4166667E-01  0.1666667E+00  0.0000000E+00  0.4629630E-02
    1      -21.645665
    2      -16.868785
    3      -15.345355
    4      -10.775633
    5       -9.681197
    6       -7.516709
    7       -6.864248
    8       -4.717513
    9       -1.258363
   10        1.221603
   11        2.027820
   12        2.426522
 
  0.8333333E-01  0.1666667E+00  0.0000000E+00  0.4629630E-02
    1      -21.615985
    2      -17.158703
    3      -15.016933
    4      -10.743236
    5       -9.646183
    6       -7.643246
    7       -6.874173
    8       -4.903236
    9       -1.038597
   10        1.261957
   11        2.068669
   12        2.468006
 
  0.1250000E+00  0.1666667E+00  0.0000000E+00  0.4629630E-02
    1      -21.566543
    2      -17.499906
    3      -14.612174
    4      -10.689143
    5       -9.587892
    6       -7.825452
    7       -6.917701
    8       -5.169985
    9       -0.715661
   10        1.329242
   11        2.136737
   12        2.537152
 
  0.1666667E+00  0.1666667E+00  0.0000000E+00  0.4629630E-02
    1      -21.497379
    2      -17.851840
    3      -14.172595
    4      -10.613186
    5       -9.506422
    6       -8.045278
    7       -7.009707
    8       -5.483632
    9       -0.324498
   10        1.423491
   11        2.231999
   12        2.633967
 
  0.2083333E+00  0.1666667E+00  0.0000000E+00  0.4629630E-02
    1      -21.408549
    2      -18.199982
    3      -13.714151
    4      -10.515088
    5       -9.401917
    6       -8.291512
    7       -7.156122
    8       -5.820449
    9        0.110058
   10        1.544736
   11        2.354421
   12        2.758460
 
  0.2500000E+00  0.1666667E+00  0.0000000E+00  0.4629630E-02
    1      -21.300127
    2      -18.538128
    3      -13.245033
    4      -10.394410
    5       -9.274566
    6       -8.557393
    7       -7.356156
    8       -6.165397
    9        0.571600
   10        1.692994
   11        2.503958
   12        2.910638
 
  0.2916667E+00  0.1666667E+00  0.0000000E+00  0.4629630E-02
    1      -21.172205
    2      -18.863133
    3      -12.771036
    4      -10.250493
    5       -9.124616
    6       -8.839267
    7       -7.603936
    8       -6.509020
    9        1.049078
   10        1.868255
   11        2.680546
   12        3.090505
 
  0.3333333E+00  0.1666667E+00  0.0000000E+00  0.4629630E-02
    1      -21.024898
    2      -19.173181
    3      -12.297439
    4      -10.082372
    5       -9.136098
    6       -8.952373
    7       -7.889685
    8       -6.845206
    9        1.534606
   10        2.070481
   11        2.884105
   12        3.298058
 
  0.3750000E+00  0.1666667E+00  0.0000000E+00  0.4629630E-02
    1      -20.858344
    2      -19.467106
    3      -11.829804
    4       -9.888748
    5       -9.449291
    6       -8.758220
    7       -8.200722
    8       -7.169853
    9        2.022169
   10        2.299605
   11        3.114526
   12        3.533289
 
  0.4166667E+00  0.1666667E+00  0.0000000E+00  0.4629630E-02
    1      -20.672713
    2      -19.744101
    3      -11.374259
    4       -9.782327
    5       -9.668091
    6       -8.542631
    7       -8.522557
    8       -7.480099
    9        2.506892
   10        2.555540
   11        3.371657
   12        3.796187
 
  0.4583333E+00  0.1666667E+00  0.0000000E+00  0.4629630E-02
    1      -20.468203
    2      -20.003571
    3      -10.937255
    4      -10.139646
    5       -9.419142
    6       -8.840521
    7       -8.306191
    8       -7.773873
    9        2.838178
   10        2.984603
   11        3.483026
   12        3.655089
 
  0.5000000E+00  0.1666667E+00  0.0000000E+00  0.2314815E-02
    1      -20.245059
    2      -20.245059
    3      -10.524568
    4      -10.524568
    5       -9.142117
    6       -9.142117
    7       -8.049630
    8       -8.049630
    9        3.147391
   10        3.147391
   11        3.451511
   12        3.451511
 