       N       E                     dE             d eps       ncg     rms          rms(c)
DAV:   1     0.189584189063E+03    0.18958E+03   -0.10612E+04  5928   0.275E+03
DAV:   2    -0.861903982014E+01   -0.19820E+03   -0.17611E+03 10420   0.258E+02
DAV:   3    -0.381825826825E+02   -0.29564E+02   -0.28913E+02  7444   0.120E+02    0.718E+00
RMM:   4    -0.376428342293E+02    0.53975E+00   -0.98157E+00  5929   0.268E+01    0.417E+00
RMM:   5    -0.369106556243E+02    0.73218E+00   -0.27890E+00  5932   0.114E+01    0.721E-01
RMM:   6    -0.369125524347E+02   -0.18968E-02   -0.86373E-02  6365   0.204E+00    0.508E-01
RMM:   7    -0.369033888723E+02    0.91636E-02   -0.32426E-02  5939   0.157E+00    0.333E-01
RMM:   8    -0.368981758150E+02    0.52131E-02   -0.69200E-03  5930   0.552E-01    0.135E-01
RMM:   9    -0.368978905832E+02    0.28523E-03   -0.19992E-02  5928   0.836E-01    0.155E-01
RMM:  10    -0.368978583704E+02    0.32213E-04   -0.24848E-03  5928   0.360E-01    0.297E-02
RMM:  11    -0.369002465911E+02   -0.23882E-02   -0.64165E-04  5931   0.165E-01    0.426E-02
RMM:  12    -0.369007360530E+02   -0.48946E-03   -0.21586E-04  5948   0.961E-02    0.452E-03
RMM:  13    -0.369009599290E+02   -0.22388E-03   -0.43271E-05  6027   0.358E-02    0.346E-03
RMM:  14    -0.369010424920E+02   -0.82563E-04   -0.10231E-05  5958   0.160E-02    0.128E-03
RMM:  15    -0.369010520431E+02   -0.95511E-05   -0.14569E-06  5995   0.686E-03    0.151E-03
RMM:  16    -0.369010642722E+02   -0.12229E-04   -0.10922E-06  5928   0.685E-03    0.113E-03
RMM:  17    -0.369010691913E+02   -0.49192E-05   -0.98058E-08  6008   0.193E-03    0.604E-04
RMM:  18    -0.369010702687E+02   -0.10774E-05   -0.49613E-08  5938   0.173E-03    0.132E-04
RMM:  19    -0.369010709932E+02   -0.72450E-06   -0.99460E-09  6080   0.505E-04    0.180E-05
RMM:  20    -0.369010710362E+02   -0.43019E-07   -0.74052E-10  4553   0.141E-04    0.242E-05
RMM:  21    -0.369010710529E+02   -0.16747E-07   -0.22949E-10  4372   0.874E-05    0.671E-06
RMM:  22    -0.369010710532E+02   -0.25329E-09   -0.17686E-11  3896   0.504E-05    0.219E-06
RMM:  23    -0.369010710538E+02   -0.60004E-09   -0.20399E-11  3520   0.387E-05    0.194E-06
RMM:  24    -0.369010710539E+02   -0.11983E-09   -0.33550E-12  3036   0.279E-05    0.533E-07
RMM:  25    -0.369010710539E+02    0.59345E-10   -0.43998E-12  2712   0.242E-05
   1 F= -.36901071E+02 E0= -.36901069E+02  d E =-.369011E+02
       N       E                     dE             d eps       ncg     rms          rms(c)
DAV:   1    -0.369010708223E+02    0.23165E-06   -0.21034E-05  6352   0.430E-02    0.880E-04
RMM:   2    -0.369010708397E+02   -0.17430E-07   -0.34007E-07  5952   0.515E-03    0.637E-04
RMM:   3    -0.369010708335E+02    0.61643E-08   -0.58229E-08  5964   0.194E-03    0.170E-04
RMM:   4    -0.369010708317E+02    0.18849E-08   -0.38943E-09  6053   0.497E-04    0.479E-05
RMM:   5    -0.369010708320E+02   -0.34936E-09   -0.26860E-10  4186   0.121E-04    0.207E-05
RMM:   6    -0.369010708319E+02    0.13574E-09   -0.33722E-11  3737   0.619E-05    0.332E-06
RMM:   7    -0.369010708323E+02   -0.40393E-09   -0.15237E-11  3679   0.489E-05    0.217E-06
RMM:   8    -0.369010708320E+02    0.23078E-09   -0.84538E-12  3193   0.358E-05    0.973E-07
RMM:   9    -0.369010708319E+02    0.11880E-09   -0.56558E-12  2828   0.281E-05    0.245E-07
RMM:  10    -0.369010708322E+02   -0.23181E-09   -0.11227E-12  2566   0.244E-05    0.731E-07
RMM:  11    -0.369010708323E+02   -0.13256E-09   -0.24726E-12  2381   0.226E-05    0.396E-07
RMM:  12    -0.369010708319E+02    0.39608E-09   -0.10249E-12  2276   0.214E-05    0.285E-08
RMM:  13    -0.369010708323E+02   -0.44315E-09   -0.56741E-13  2170   0.204E-05    0.743E-08
RMM:  14    -0.369010708319E+02    0.46089E-09   -0.76723E-13  2052   0.193E-05    0.765E-08
RMM:  15    -0.369010708319E+02   -0.46839E-10   -0.92223E-13  1949   0.187E-05
   2 F= -.36901071E+02 E0= -.36901068E+02  d E =0.221940E-06
       N       E                     dE             d eps       ncg     rms          rms(c)
DAV:   1    -0.369010710742E+02   -0.24231E-06   -0.13301E-05  6644   0.342E-02    0.704E-04
RMM:   2    -0.369010710795E+02   -0.53406E-08   -0.20772E-07  5949   0.409E-03    0.506E-04
RMM:   3    -0.369010710716E+02    0.78870E-08   -0.36102E-08  5961   0.153E-03    0.130E-04
RMM:   4    -0.369010710711E+02    0.48772E-09   -0.23148E-09  6042   0.385E-04    0.378E-05
RMM:   5    -0.369010710711E+02    0.15461E-10   -0.14555E-10  3978   0.954E-05
   3 F= -.36901071E+02 E0= -.36901069E+02  d E =-.239211E-06
       N       E                     dE             d eps       ncg     rms          rms(c)
DAV:   1    -0.369010710703E+02    0.84560E-09    0.54421E-09  4624   0.820E-05    0.219E-06
RMM:   2    -0.369010710709E+02   -0.62107E-09    0.25468E-12  3001   0.312E-05    0.117E-06
RMM:   3    -0.369010710713E+02   -0.37528E-09   -0.71834E-12  2798   0.310E-05    0.177E-07
RMM:   4    -0.369010710709E+02    0.42132E-09   -0.27494E-12  2505   0.273E-05    0.149E-07
RMM:   5    -0.369010710710E+02   -0.15643E-09   -0.25928E-12  2274   0.243E-05    0.159E-07
RMM:   6    -0.369010710710E+02    0.55934E-10   -0.55521E-13  2105   0.225E-05
   4 F= -.36901071E+02 E0= -.36901069E+02  d E =0.154614E-09
       N       E                     dE             d eps       ncg     rms          rms(c)
DAV:   1    -0.369010710704E+02    0.62028E-09    0.54901E-09  4284   0.280E-05    0.350E-07
RMM:   2    -0.369010710710E+02   -0.61425E-09    0.20716E-13  1436   0.102E-05    0.218E-07
RMM:   3    -0.369010710711E+02   -0.63324E-10   -0.62913E-13  1408   0.103E-05    0.187E-08
RMM:   4    -0.369010710709E+02    0.21771E-09   -0.59763E-13  1394   0.102E-05    0.121E-08
RMM:   5    -0.369010710709E+02   -0.37062E-10   -0.24696E-13  1380   0.101E-05
   5 F= -.36901071E+02 E0= -.36901069E+02  d E =0.674163E-10
