<?xml version="1.0" encoding="ISO-8859-1"?>
<modeling>
 <generator>
  <i name="program" type="string">vasp </i>
  <i name="version" type="string">5.3.5  </i>
  <i name="subversion" type="string">31Mar14 (build Mar 02 2015 18:14:16) complex                          parallel </i>
  <i name="platform" type="string">LinuxIFC </i>
  <i name="date" type="string">2018 08 09 </i>
  <i name="time" type="string">15:04:38 </i>
 </generator>
 <incar>
  <i type="string" name="SYSTEM">  gr</i>
  <i type="string" name="PREC">accurate : accuracy</i>
  <i type="string" name="ALGO"> FAST.</i>
  <i type="int" name="NELM">   100</i>
  <i type="int" name="NELMDL">    -3</i>
  <i type="int" name="NELMIN">     5</i>
  <i type="int" name="IBRION">     1</i>
  <i name="EDIFF">      0.00000000</i>
  <i name="EDIFFG">     -0.00000100</i>
  <i type="int" name="NSW">   400</i>
  <i type="int" name="ISIF">     2</i>
  <i name="ENCUT">   2000.00000000</i>
  <i type="int" name="ISMEAR">     0</i>
  <i name="SIGMA">      0.05000000</i>
  <i type="int" name="NWRITE">     2</i>
  <i type="logical" name="LWAVE"> F  </i>
  <i type="logical" name="LCHARG"> F  </i>
  <i type="int" name="NELM">   100</i>
 </incar>
 <kpoints>
  <generation param="Gamma">
   <v type="int" name="divisions">      24       36        1 </v>
   <v name="usershift">      0.00000000       0.00000000       0.00000000 </v>
   <v name="genvec1">      0.04166667       0.00000000       0.00000000 </v>
   <v name="genvec2">      0.00000000       0.02777778       0.00000000 </v>
   <v name="genvec3">      0.00000000       0.00000000       1.00000000 </v>
   <v name="shift">      0.00000000       0.00000000       0.00000000 </v>
  </generation>
  <varray name="kpointlist" >
   <v>       0.00000000       0.00000000       0.00000000 </v>
   <v>       0.04166667       0.00000000       0.00000000 </v>
   <v>       0.08333333       0.00000000       0.00000000 </v>
   <v>       0.12500000       0.00000000       0.00000000 </v>
   <v>       0.16666667       0.00000000       0.00000000 </v>
   <v>       0.20833333       0.00000000       0.00000000 </v>
   <v>       0.25000000       0.00000000       0.00000000 </v>
   <v>       0.29166667       0.00000000       0.00000000 </v>
   <v>       0.33333333       0.00000000       0.00000000 </v>
   <v>       0.37500000       0.00000000       0.00000000 </v>
   <v>       0.41666667       0.00000000       0.00000000 </v>
   <v>       0.45833333       0.00000000       0.00000000 </v>
   <v>       0.50000000       0.00000000       0.00000000 </v>
   <v>       0.00000000       0.02777778       0.00000000 </v>
   <v>       0.04166667       0.02777778       0.00000000 </v>
   <v>       0.08333333       0.02777778       0.00000000 </v>
   <v>       0.12500000       0.02777778       0.00000000 </v>
   <v>       0.16666667       0.02777778       0.00000000 </v>
   <v>       0.20833333       0.02777778       0.00000000 </v>
   <v>       0.25000000       0.02777778       0.00000000 </v>
   <v>       0.29166667       0.02777778       0.00000000 </v>
   <v>       0.33333333       0.02777778       0.00000000 </v>
   <v>       0.37500000       0.02777778       0.00000000 </v>
   <v>       0.41666667       0.02777778       0.00000000 </v>
   <v>       0.45833333       0.02777778       0.00000000 </v>
   <v>       0.50000000       0.02777778       0.00000000 </v>
   <v>       0.00000000       0.05555556       0.00000000 </v>
   <v>       0.04166667       0.05555556       0.00000000 </v>
   <v>       0.08333333       0.05555556       0.00000000 </v>
   <v>       0.12500000       0.05555556       0.00000000 </v>
   <v>       0.16666667       0.05555556       0.00000000 </v>
   <v>       0.20833333       0.05555556       0.00000000 </v>
   <v>       0.25000000       0.05555556       0.00000000 </v>
   <v>       0.29166667       0.05555556       0.00000000 </v>
   <v>       0.33333333       0.05555556       0.00000000 </v>
   <v>       0.37500000       0.05555556       0.00000000 </v>
   <v>       0.41666667       0.05555556       0.00000000 </v>
   <v>       0.45833333       0.05555556       0.00000000 </v>
   <v>       0.50000000       0.05555556       0.00000000 </v>
   <v>       0.00000000       0.08333333       0.00000000 </v>
   <v>       0.04166667       0.08333333       0.00000000 </v>
   <v>       0.08333333       0.08333333       0.00000000 </v>
   <v>       0.12500000       0.08333333       0.00000000 </v>
   <v>       0.16666667       0.08333333       0.00000000 </v>
   <v>       0.20833333       0.08333333       0.00000000 </v>
   <v>       0.25000000       0.08333333       0.00000000 </v>
   <v>       0.29166667       0.08333333       0.00000000 </v>
   <v>       0.33333333       0.08333333       0.00000000 </v>
   <v>       0.37500000       0.08333333       0.00000000 </v>
   <v>       0.41666667       0.08333333       0.00000000 </v>
   <v>       0.45833333       0.08333333       0.00000000 </v>
   <v>       0.50000000       0.08333333       0.00000000 </v>
   <v>       0.00000000       0.11111111       0.00000000 </v>
   <v>       0.04166667       0.11111111       0.00000000 </v>
   <v>       0.08333333       0.11111111       0.00000000 </v>
   <v>       0.12500000       0.11111111       0.00000000 </v>
   <v>       0.16666667       0.11111111       0.00000000 </v>
   <v>       0.20833333       0.11111111       0.00000000 </v>
   <v>       0.25000000       0.11111111       0.00000000 </v>
   <v>       0.29166667       0.11111111       0.00000000 </v>
   <v>       0.33333333       0.11111111       0.00000000 </v>
   <v>       0.37500000       0.11111111       0.00000000 </v>
   <v>       0.41666667       0.11111111       0.00000000 </v>
   <v>       0.45833333       0.11111111       0.00000000 </v>
   <v>       0.50000000       0.11111111       0.00000000 </v>
   <v>       0.00000000       0.13888889       0.00000000 </v>
   <v>       0.04166667       0.13888889       0.00000000 </v>
   <v>       0.08333333       0.13888889       0.00000000 </v>
   <v>       0.12500000       0.13888889       0.00000000 </v>
   <v>       0.16666667       0.13888889       0.00000000 </v>
   <v>       0.20833333       0.13888889       0.00000000 </v>
   <v>       0.25000000       0.13888889       0.00000000 </v>
   <v>       0.29166667       0.13888889       0.00000000 </v>
   <v>       0.33333333       0.13888889       0.00000000 </v>
   <v>       0.37500000       0.13888889       0.00000000 </v>
   <v>       0.41666667       0.13888889       0.00000000 </v>
   <v>       0.45833333       0.13888889       0.00000000 </v>
   <v>       0.50000000       0.13888889       0.00000000 </v>
   <v>       0.00000000       0.16666667       0.00000000 </v>
   <v>       0.04166667       0.16666667       0.00000000 </v>
   <v>       0.08333333       0.16666667       0.00000000 </v>
   <v>       0.12500000       0.16666667       0.00000000 </v>
   <v>       0.16666667       0.16666667       0.00000000 </v>
   <v>       0.20833333       0.16666667       0.00000000 </v>
   <v>       0.25000000       0.16666667       0.00000000 </v>
   <v>       0.29166667       0.16666667       0.00000000 </v>
   <v>       0.33333333       0.16666667       0.00000000 </v>
   <v>       0.37500000       0.16666667       0.00000000 </v>
   <v>       0.41666667       0.16666667       0.00000000 </v>
   <v>       0.45833333       0.16666667       0.00000000 </v>
   <v>       0.50000000       0.16666667       0.00000000 </v>
   <v>       0.00000000       0.19444444       0.00000000 </v>
   <v>       0.04166667       0.19444444       0.00000000 </v>
   <v>       0.08333333       0.19444444       0.00000000 </v>
   <v>       0.12500000       0.19444444       0.00000000 </v>
   <v>       0.16666667       0.19444444       0.00000000 </v>
   <v>       0.20833333       0.19444444       0.00000000 </v>
   <v>       0.25000000       0.19444444       0.00000000 </v>
   <v>       0.29166667       0.19444444       0.00000000 </v>
   <v>       0.33333333       0.19444444       0.00000000 </v>
   <v>       0.37500000       0.19444444       0.00000000 </v>
   <v>       0.41666667       0.19444444       0.00000000 </v>
   <v>       0.45833333       0.19444444       0.00000000 </v>
   <v>       0.50000000       0.19444444       0.00000000 </v>
   <v>       0.00000000       0.22222222       0.00000000 </v>
   <v>       0.04166667       0.22222222       0.00000000 </v>
   <v>       0.08333333       0.22222222       0.00000000 </v>
   <v>       0.12500000       0.22222222       0.00000000 </v>
   <v>       0.16666667       0.22222222       0.00000000 </v>
   <v>       0.20833333       0.22222222       0.00000000 </v>
   <v>       0.25000000       0.22222222       0.00000000 </v>
   <v>       0.29166667       0.22222222       0.00000000 </v>
   <v>       0.33333333       0.22222222       0.00000000 </v>
   <v>       0.37500000       0.22222222       0.00000000 </v>
   <v>       0.41666667       0.22222222       0.00000000 </v>
   <v>       0.45833333       0.22222222       0.00000000 </v>
   <v>       0.50000000       0.22222222       0.00000000 </v>
   <v>       0.00000000       0.25000000       0.00000000 </v>
   <v>       0.04166667       0.25000000       0.00000000 </v>
   <v>       0.08333333       0.25000000       0.00000000 </v>
   <v>       0.12500000       0.25000000       0.00000000 </v>
   <v>       0.16666667       0.25000000       0.00000000 </v>
   <v>       0.20833333       0.25000000       0.00000000 </v>
   <v>       0.25000000       0.25000000       0.00000000 </v>
   <v>       0.29166667       0.25000000       0.00000000 </v>
   <v>       0.33333333       0.25000000       0.00000000 </v>
   <v>       0.37500000       0.25000000       0.00000000 </v>
   <v>       0.41666667       0.25000000       0.00000000 </v>
   <v>       0.45833333       0.25000000       0.00000000 </v>
   <v>       0.50000000       0.25000000       0.00000000 </v>
   <v>       0.00000000       0.27777778       0.00000000 </v>
   <v>       0.04166667       0.27777778       0.00000000 </v>
   <v>       0.08333333       0.27777778       0.00000000 </v>
   <v>       0.12500000       0.27777778       0.00000000 </v>
   <v>       0.16666667       0.27777778       0.00000000 </v>
   <v>       0.20833333       0.27777778       0.00000000 </v>
   <v>       0.25000000       0.27777778       0.00000000 </v>
   <v>       0.29166667       0.27777778       0.00000000 </v>
   <v>       0.33333333       0.27777778       0.00000000 </v>
   <v>       0.37500000       0.27777778       0.00000000 </v>
   <v>       0.41666667       0.27777778       0.00000000 </v>
   <v>       0.45833333       0.27777778       0.00000000 </v>
   <v>       0.50000000       0.27777778       0.00000000 </v>
   <v>       0.00000000       0.30555556       0.00000000 </v>
   <v>       0.04166667       0.30555556       0.00000000 </v>
   <v>       0.08333333       0.30555556       0.00000000 </v>
   <v>       0.12500000       0.30555556       0.00000000 </v>
   <v>       0.16666667       0.30555556       0.00000000 </v>
   <v>       0.20833333       0.30555556       0.00000000 </v>
   <v>       0.25000000       0.30555556       0.00000000 </v>
   <v>       0.29166667       0.30555556       0.00000000 </v>
   <v>       0.33333333       0.30555556       0.00000000 </v>
   <v>       0.37500000       0.30555556       0.00000000 </v>
   <v>       0.41666667       0.30555556       0.00000000 </v>
   <v>       0.45833333       0.30555556       0.00000000 </v>
   <v>       0.50000000       0.30555556       0.00000000 </v>
   <v>       0.00000000       0.33333333       0.00000000 </v>
   <v>       0.04166667       0.33333333       0.00000000 </v>
   <v>       0.08333333       0.33333333       0.00000000 </v>
   <v>       0.12500000       0.33333333       0.00000000 </v>
   <v>       0.16666667       0.33333333       0.00000000 </v>
   <v>       0.20833333       0.33333333       0.00000000 </v>
   <v>       0.25000000       0.33333333       0.00000000 </v>
   <v>       0.29166667       0.33333333       0.00000000 </v>
   <v>       0.33333333       0.33333333       0.00000000 </v>
   <v>       0.37500000       0.33333333       0.00000000 </v>
   <v>       0.41666667       0.33333333       0.00000000 </v>
   <v>       0.45833333       0.33333333       0.00000000 </v>
   <v>       0.50000000       0.33333333       0.00000000 </v>
   <v>       0.00000000       0.36111111       0.00000000 </v>
   <v>       0.04166667       0.36111111       0.00000000 </v>
   <v>       0.08333333       0.36111111       0.00000000 </v>
   <v>       0.12500000       0.36111111       0.00000000 </v>
   <v>       0.16666667       0.36111111       0.00000000 </v>
   <v>       0.20833333       0.36111111       0.00000000 </v>
   <v>       0.25000000       0.36111111       0.00000000 </v>
   <v>       0.29166667       0.36111111       0.00000000 </v>
   <v>       0.33333333       0.36111111       0.00000000 </v>
   <v>       0.37500000       0.36111111       0.00000000 </v>
   <v>       0.41666667       0.36111111       0.00000000 </v>
   <v>       0.45833333       0.36111111       0.00000000 </v>
   <v>       0.50000000       0.36111111       0.00000000 </v>
   <v>       0.00000000       0.38888889       0.00000000 </v>
   <v>       0.04166667       0.38888889       0.00000000 </v>
   <v>       0.08333333       0.38888889       0.00000000 </v>
   <v>       0.12500000       0.38888889       0.00000000 </v>
   <v>       0.16666667       0.38888889       0.00000000 </v>
   <v>       0.20833333       0.38888889       0.00000000 </v>
   <v>       0.25000000       0.38888889       0.00000000 </v>
   <v>       0.29166667       0.38888889       0.00000000 </v>
   <v>       0.33333333       0.38888889       0.00000000 </v>
   <v>       0.37500000       0.38888889       0.00000000 </v>
   <v>       0.41666667       0.38888889       0.00000000 </v>
   <v>       0.45833333       0.38888889       0.00000000 </v>
   <v>       0.50000000       0.38888889       0.00000000 </v>
   <v>       0.00000000       0.41666667       0.00000000 </v>
   <v>       0.04166667       0.41666667       0.00000000 </v>
   <v>       0.08333333       0.41666667       0.00000000 </v>
   <v>       0.12500000       0.41666667       0.00000000 </v>
   <v>       0.16666667       0.41666667       0.00000000 </v>
   <v>       0.20833333       0.41666667       0.00000000 </v>
   <v>       0.25000000       0.41666667       0.00000000 </v>
   <v>       0.29166667       0.41666667       0.00000000 </v>
   <v>       0.33333333       0.41666667       0.00000000 </v>
   <v>       0.37500000       0.41666667       0.00000000 </v>
   <v>       0.41666667       0.41666667       0.00000000 </v>
   <v>       0.45833333       0.41666667       0.00000000 </v>
   <v>       0.50000000       0.41666667       0.00000000 </v>
   <v>       0.00000000       0.44444444       0.00000000 </v>
   <v>       0.04166667       0.44444444       0.00000000 </v>
   <v>       0.08333333       0.44444444       0.00000000 </v>
   <v>       0.12500000       0.44444444       0.00000000 </v>
   <v>       0.16666667       0.44444444       0.00000000 </v>
   <v>       0.20833333       0.44444444       0.00000000 </v>
   <v>       0.25000000       0.44444444       0.00000000 </v>
   <v>       0.29166667       0.44444444       0.00000000 </v>
   <v>       0.33333333       0.44444444       0.00000000 </v>
   <v>       0.37500000       0.44444444       0.00000000 </v>
   <v>       0.41666667       0.44444444       0.00000000 </v>
   <v>       0.45833333       0.44444444       0.00000000 </v>
   <v>       0.50000000       0.44444444       0.00000000 </v>
   <v>       0.00000000       0.47222222       0.00000000 </v>
   <v>       0.04166667       0.47222222       0.00000000 </v>
   <v>       0.08333333       0.47222222       0.00000000 </v>
   <v>       0.12500000       0.47222222       0.00000000 </v>
   <v>       0.16666667       0.47222222       0.00000000 </v>
   <v>       0.20833333       0.47222222       0.00000000 </v>
   <v>       0.25000000       0.47222222       0.00000000 </v>
   <v>       0.29166667       0.47222222       0.00000000 </v>
   <v>       0.33333333       0.47222222       0.00000000 </v>
   <v>       0.37500000       0.47222222       0.00000000 </v>
   <v>       0.41666667       0.47222222       0.00000000 </v>
   <v>       0.45833333       0.47222222       0.00000000 </v>
   <v>       0.50000000       0.47222222       0.00000000 </v>
   <v>       0.00000000       0.50000000       0.00000000 </v>
   <v>       0.04166667       0.50000000       0.00000000 </v>
   <v>       0.08333333       0.50000000       0.00000000 </v>
   <v>       0.12500000       0.50000000       0.00000000 </v>
   <v>       0.16666667       0.50000000       0.00000000 </v>
   <v>       0.20833333       0.50000000       0.00000000 </v>
   <v>       0.25000000       0.50000000       0.00000000 </v>
   <v>       0.29166667       0.50000000       0.00000000 </v>
   <v>       0.33333333       0.50000000       0.00000000 </v>
   <v>       0.37500000       0.50000000       0.00000000 </v>
   <v>       0.41666667       0.50000000       0.00000000 </v>
   <v>       0.45833333       0.50000000       0.00000000 </v>
   <v>       0.50000000       0.50000000       0.00000000 </v>
  </varray>
  <varray name="weights" >
   <v>       0.00115741 </v>
   <v>       0.00231481 </v>
   <v>       0.00231481 </v>
   <v>       0.00231481 </v>
   <v>       0.00231481 </v>
   <v>       0.00231481 </v>
   <v>       0.00231481 </v>
   <v>       0.00231481 </v>
   <v>       0.00231481 </v>
   <v>       0.00231481 </v>
   <v>       0.00231481 </v>
   <v>       0.00231481 </v>
   <v>       0.00115741 </v>
   <v>       0.00231481 </v>
   <v>       0.00462963 </v>
   <v>       0.00462963 </v>
   <v>       0.00462963 </v>
   <v>       0.00462963 </v>
   <v>       0.00462963 </v>
   <v>       0.00462963 </v>
   <v>       0.00462963 </v>
   <v>       0.00462963 </v>
   <v>       0.00462963 </v>
   <v>       0.00462963 </v>
   <v>       0.00462963 </v>
   <v>       0.00231481 </v>
   <v>       0.00231481 </v>
   <v>       0.00462963 </v>
   <v>       0.00462963 </v>
   <v>       0.00462963 </v>
   <v>       0.00462963 </v>
   <v>       0.00462963 </v>
   <v>       0.00462963 </v>
   <v>       0.00462963 </v>
   <v>       0.00462963 </v>
   <v>       0.00462963 </v>
   <v>       0.00462963 </v>
   <v>       0.00462963 </v>
   <v>       0.00231481 </v>
   <v>       0.00231481 </v>
   <v>       0.00462963 </v>
   <v>       0.00462963 </v>
   <v>       0.00462963 </v>
   <v>       0.00462963 </v>
   <v>       0.00462963 </v>
   <v>       0.00462963 </v>
   <v>       0.00462963 </v>
   <v>       0.00462963 </v>
   <v>       0.00462963 </v>
   <v>       0.00462963 </v>
   <v>       0.00462963 </v>
   <v>       0.00231481 </v>
   <v>       0.00231481 </v>
   <v>       0.00462963 </v>
   <v>       0.00462963 </v>
   <v>       0.00462963 </v>
   <v>       0.00462963 </v>
   <v>       0.00462963 </v>
   <v>       0.00462963 </v>
   <v>       0.00462963 </v>
   <v>       0.00462963 </v>
   <v>       0.00462963 </v>
   <v>       0.00462963 </v>
   <v>       0.00462963 </v>
   <v>       0.00231481 </v>
   <v>       0.00231481 </v>
   <v>       0.00462963 </v>
   <v>       0.00462963 </v>
   <v>       0.00462963 </v>
   <v>       0.00462963 </v>
   <v>       0.00462963 </v>
   <v>       0.00462963 </v>
   <v>       0.00462963 </v>
   <v>       0.00462963 </v>
   <v>       0.00462963 </v>
   <v>       0.00462963 </v>
   <v>       0.00462963 </v>
   <v>       0.00231481 </v>
   <v>       0.00231481 </v>
   <v>       0.00462963 </v>
   <v>       0.00462963 </v>
   <v>       0.00462963 </v>
   <v>       0.00462963 </v>
   <v>       0.00462963 </v>
   <v>       0.00462963 </v>
   <v>       0.00462963 </v>
   <v>       0.00462963 </v>
   <v>       0.00462963 </v>
   <v>       0.00462963 </v>
   <v>       0.00462963 </v>
   <v>       0.00231481 </v>
   <v>       0.00231481 </v>
   <v>       0.00462963 </v>
   <v>       0.00462963 </v>
   <v>       0.00462963 </v>
   <v>       0.00462963 </v>
   <v>       0.00462963 </v>
   <v>       0.00462963 </v>
   <v>       0.00462963 </v>
   <v>       0.00462963 </v>
   <v>       0.00462963 </v>
   <v>       0.00462963 </v>
   <v>       0.00462963 </v>
   <v>       0.00231481 </v>
   <v>       0.00231481 </v>
   <v>       0.00462963 </v>
   <v>       0.00462963 </v>
   <v>       0.00462963 </v>
   <v>       0.00462963 </v>
   <v>       0.00462963 </v>
   <v>       0.00462963 </v>
   <v>       0.00462963 </v>
   <v>       0.00462963 </v>
   <v>       0.00462963 </v>
   <v>       0.00462963 </v>
   <v>       0.00462963 </v>
   <v>       0.00231481 </v>
   <v>       0.00231481 </v>
   <v>       0.00462963 </v>
   <v>       0.00462963 </v>
   <v>       0.00462963 </v>
   <v>       0.00462963 </v>
   <v>       0.00462963 </v>
   <v>       0.00462963 </v>
   <v>       0.00462963 </v>
   <v>       0.00462963 </v>
   <v>       0.00462963 </v>
   <v>       0.00462963 </v>
   <v>       0.00462963 </v>
   <v>       0.00231481 </v>
   <v>       0.00231481 </v>
   <v>       0.00462963 </v>
   <v>       0.00462963 </v>
   <v>       0.00462963 </v>
   <v>       0.00462963 </v>
   <v>       0.00462963 </v>
   <v>       0.00462963 </v>
   <v>       0.00462963 </v>
   <v>       0.00462963 </v>
   <v>       0.00462963 </v>
   <v>       0.00462963 </v>
   <v>       0.00462963 </v>
   <v>       0.00231481 </v>
   <v>       0.00231481 </v>
   <v>       0.00462963 </v>
   <v>       0.00462963 </v>
   <v>       0.00462963 </v>
   <v>       0.00462963 </v>
   <v>       0.00462963 </v>
   <v>       0.00462963 </v>
   <v>       0.00462963 </v>
   <v>       0.00462963 </v>
   <v>       0.00462963 </v>
   <v>       0.00462963 </v>
   <v>       0.00462963 </v>
   <v>       0.00231481 </v>
   <v>       0.00231481 </v>
   <v>       0.00462963 </v>
   <v>       0.00462963 </v>
   <v>       0.00462963 </v>
   <v>       0.00462963 </v>
   <v>       0.00462963 </v>
   <v>       0.00462963 </v>
   <v>       0.00462963 </v>
   <v>       0.00462963 </v>
   <v>       0.00462963 </v>
   <v>       0.00462963 </v>
   <v>       0.00462963 </v>
   <v>       0.00231481 </v>
   <v>       0.00231481 </v>
   <v>       0.00462963 </v>
   <v>       0.00462963 </v>
   <v>       0.00462963 </v>
   <v>       0.00462963 </v>
   <v>       0.00462963 </v>
   <v>       0.00462963 </v>
   <v>       0.00462963 </v>
   <v>       0.00462963 </v>
   <v>       0.00462963 </v>
   <v>       0.00462963 </v>
   <v>       0.00462963 </v>
   <v>       0.00231481 </v>
   <v>       0.00231481 </v>
   <v>       0.00462963 </v>
   <v>       0.00462963 </v>
   <v>       0.00462963 </v>
   <v>       0.00462963 </v>
   <v>       0.00462963 </v>
   <v>       0.00462963 </v>
   <v>       0.00462963 </v>
   <v>       0.00462963 </v>
   <v>       0.00462963 </v>
   <v>       0.00462963 </v>
   <v>       0.00462963 </v>
   <v>       0.00231481 </v>
   <v>       0.00231481 </v>
   <v>       0.00462963 </v>
   <v>       0.00462963 </v>
   <v>       0.00462963 </v>
   <v>       0.00462963 </v>
   <v>       0.00462963 </v>
   <v>       0.00462963 </v>
   <v>       0.00462963 </v>
   <v>       0.00462963 </v>
   <v>       0.00462963 </v>
   <v>       0.00462963 </v>
   <v>       0.00462963 </v>
   <v>       0.00231481 </v>
   <v>       0.00231481 </v>
   <v>       0.00462963 </v>
   <v>       0.00462963 </v>
   <v>       0.00462963 </v>
   <v>       0.00462963 </v>
   <v>       0.00462963 </v>
   <v>       0.00462963 </v>
   <v>       0.00462963 </v>
   <v>       0.00462963 </v>
   <v>       0.00462963 </v>
   <v>       0.00462963 </v>
   <v>       0.00462963 </v>
   <v>       0.00231481 </v>
   <v>       0.00231481 </v>
   <v>       0.00462963 </v>
   <v>       0.00462963 </v>
   <v>       0.00462963 </v>
   <v>       0.00462963 </v>
   <v>       0.00462963 </v>
   <v>       0.00462963 </v>
   <v>       0.00462963 </v>
   <v>       0.00462963 </v>
   <v>       0.00462963 </v>
   <v>       0.00462963 </v>
   <v>       0.00462963 </v>
   <v>       0.00231481 </v>
   <v>       0.00115741 </v>
   <v>       0.00231481 </v>
   <v>       0.00231481 </v>
   <v>       0.00231481 </v>
   <v>       0.00231481 </v>
   <v>       0.00231481 </v>
   <v>       0.00231481 </v>
   <v>       0.00231481 </v>
   <v>       0.00231481 </v>
   <v>       0.00231481 </v>
   <v>       0.00231481 </v>
   <v>       0.00231481 </v>
   <v>       0.00115741 </v>
  </varray>
 </kpoints>
 <parameters>
  <separator name="general" >
   <i type="string" name="SYSTEM">gr</i>
   <i type="logical" name="LCOMPAT"> F  </i>
  </separator>
  <separator name="electronic" >
   <i type="string" name="PREC">accura</i>
   <i name="ENMAX">   2000.00000000</i>
   <i name="ENAUG">    644.87300000</i>
   <i name="EDIFF">      0.00000000</i>
   <i type="int" name="IALGO">    68</i>
   <i type="int" name="IWAVPR">    11</i>
   <i type="int" name="NBANDS">    12</i>
   <i name="NELECT">     16.00000000</i>
   <i type="int" name="TURBO">     0</i>
   <i type="int" name="IRESTART">     0</i>
   <i type="int" name="NREBOOT">     0</i>
   <i type="int" name="NMIN">     0</i>
   <i name="EREF">      0.00000000</i>
   <separator name="electronic smearing" >
    <i type="int" name="ISMEAR">     0</i>
    <i name="SIGMA">      0.05000000</i>
    <i name="KSPACING">      0.50000000</i>
    <i type="logical" name="KGAMMA"> T  </i>
   </separator>
   <separator name="electronic projectors" >
    <i type="logical" name="LREAL"> F  </i>
    <v name="ROPT">      0.00000000</v>
    <i type="int" name="LMAXPAW">  -100</i>
    <i type="int" name="LMAXMIX">     2</i>
    <i type="logical" name="NLSPLINE"> F  </i>
   </separator>
   <separator name="electronic startup" >
    <i type="int" name="ISTART">     0</i>
    <i type="int" name="ICHARG">     2</i>
    <i type="int" name="INIWAV">     1</i>
   </separator>
   <separator name="electronic spin" >
    <i type="int" name="ISPIN">     1</i>
    <i type="logical" name="LNONCOLLINEAR"> F  </i>
    <v name="MAGMOM">      1.00000000      1.00000000      1.00000000      1.00000000</v>
    <i name="NUPDOWN">     -1.00000000</i>
    <i type="logical" name="LSORBIT"> F  </i>
    <v name="SAXIS">      0.00000000      0.00000000      1.00000000</v>
    <i type="logical" name="LSPIRAL"> F  </i>
    <v name="QSPIRAL">      0.00000000      0.00000000      0.00000000</v>
    <i type="logical" name="LZEROZ"> F  </i>
   </separator>
   <separator name="electronic exchange-correlation" >
    <i type="logical" name="LASPH"> F  </i>
    <i type="logical" name="LMETAGGA"> F  </i>
   </separator>
   <separator name="electronic convergence" >
    <i type="int" name="NELM">   100</i>
    <i type="int" name="NELMDL">    -3</i>
    <i type="int" name="NELMIN">     5</i>
    <i name="ENINI">   2000.00000000</i>
    <separator name="electronic convergence detail" >
     <i type="logical" name="LDIAG"> T  </i>
     <i type="logical" name="LSUBROT"> F  </i>
     <i name="WEIMIN">      0.00100000</i>
     <i name="EBREAK">      0.00000000</i>
     <i name="DEPER">      0.30000000</i>
     <i type="int" name="NRMM">     4</i>
     <i name="TIME">      0.40000000</i>
    </separator>
   </separator>
   <separator name="electronic mixer" >
    <i name="AMIX">      0.40000000</i>
    <i name="BMIX">      1.00000000</i>
    <i name="AMIN">      0.10000000</i>
    <i name="AMIX_MAG">      1.60000000</i>
    <i name="BMIX_MAG">      1.00000000</i>
    <separator name="electronic mixer details" >
     <i type="int" name="IMIX">     4</i>
     <i type="int" name="MAXMIX">   -45</i>
     <i name="WC">    100.00000000</i>
     <i type="int" name="INIMIX">     1</i>
     <i type="int" name="MIXPRE">     1</i>
     <i type="int" name="MREMOVE">     5</i>
    </separator>
   </separator>
   <separator name="electronic dipolcorrection" >
    <i type="logical" name="LDIPOL"> F  </i>
    <i type="logical" name="LMONO"> F  </i>
    <i type="int" name="IDIPOL">     0</i>
    <i name="EPSILON">      1.00000000</i>
    <v name="DIPOL">   -100.00000000   -100.00000000   -100.00000000</v>
    <i name="EFIELD">      0.00000000</i>
   </separator>
  </separator>
  <separator name="grids" >
   <i type="int" name="NGX">    64</i>
   <i type="int" name="NGY">    36</i>
   <i type="int" name="NGZ">   288</i>
   <i type="int" name="NGXF">   128</i>
   <i type="int" name="NGYF">    72</i>
   <i type="int" name="NGZF">   576</i>
   <i type="logical" name="ADDGRID"> F  </i>
  </separator>
  <separator name="ionic" >
   <i type="int" name="NSW">   400</i>
   <i type="int" name="IBRION">     1</i>
   <i type="int" name="ISIF">     2</i>
   <i name="PSTRESS">      0.00000000</i>
   <i name="EDIFFG">     -0.00000100</i>
   <i type="int" name="NFREE">     0</i>
   <i name="POTIM">      0.50000000</i>
   <i name="SMASS">     -3.00000000</i>
   <i name="SCALEE">      1.00000000</i>
  </separator>
  <separator name="ionic md" >
   <i name="TEBEG">      0.00010000</i>
   <i name="TEEND">      0.00010000</i>
   <i type="int" name="NBLOCK">     1</i>
   <i type="int" name="KBLOCK">   400</i>
   <i type="int" name="NPACO">   256</i>
   <i name="APACO">     16.00000000</i>
  </separator>
  <separator name="symmetry" >
   <i type="int" name="ISYM">     2</i>
   <i name="SYMPREC">      0.00001000</i>
  </separator>
  <separator name="dos" >
   <i type="logical" name="LORBIT"> F  </i>
   <v name="RWIGS">     -1.00000000</v>
   <i type="int" name="NEDOS">   301</i>
   <i name="EMIN">     10.00000000</i>
   <i name="EMAX">    -10.00000000</i>
   <i name="EFERMI">      0.00000000</i>
  </separator>
  <separator name="writing" >
   <i type="int" name="NWRITE">     2</i>
   <i type="logical" name="LWAVE"> F  </i>
   <i type="logical" name="LCHARG"> F  </i>
   <i type="logical" name="LPARD"> F  </i>
   <i type="logical" name="LVTOT"> F  </i>
   <i type="logical" name="LVHAR"> F  </i>
   <i type="logical" name="LELF"> F  </i>
   <i type="logical" name="LOPTICS"> F  </i>
   <v name="STM">      0.00000000      0.00000000      0.00000000      0.00000000      0.00000000      0.00000000      0.00000000</v>
  </separator>
  <separator name="performance" >
   <i type="int" name="NPAR">     4</i>
   <i type="int" name="NSIM">     4</i>
   <i type="int" name="NBLK">    -1</i>
   <i type="logical" name="LPLANE"> T  </i>
   <i type="logical" name="LSCALAPACK"> F  </i>
   <i type="logical" name="LSCAAWARE"> F  </i>
   <i type="logical" name="LSCALU"> F  </i>
   <i type="logical" name="LASYNC"> F  </i>
   <i type="logical" name="LORBITALREAL"> F  </i>
  </separator>
  <separator name="miscellaneous" >
   <i type="int" name="IDIOT">     3</i>
   <i type="logical" name="LMUSIC"> F  </i>
   <v name="POMASS">     12.01100000</v>
   <v name="DARWINR">      0.00000000</v>
   <v name="DARWINV">      1.00000000</v>
   <i type="logical" name="LCORR"> T  </i>
  </separator>
  <i type="logical" name="GGA_COMPAT"> T  </i>
  <i type="logical" name="LBERRY"> F  </i>
  <i type="int" name="ICORELEVEL">     0</i>
  <i type="logical" name="LDAU"> F  </i>
  <i type="int" name="I_CONSTRAINED_M">     0</i>
  <separator name="electronic exchange-correlation" >
   <i type="string" name="GGA">--</i>
   <i type="int" name="VOSKOWN">     0</i>
   <i type="logical" name="LHFCALC"> F  </i>
   <i type="string" name="PRECFOCK"></i>
   <i type="logical" name="LSYMGRAD"> F  </i>
   <i type="logical" name="LHFONE"> F  </i>
   <i type="logical" name="LRHFCALC"> F  </i>
   <i type="logical" name="LTHOMAS"> F  </i>
   <i type="logical" name="LMODELHF"> F  </i>
   <i name="ENCUT4O">     -1.00000000</i>
   <i type="int" name="EXXOEP">     0</i>
   <i type="int" name="FOURORBIT">     0</i>
   <i name="AEXX">      0.00000000</i>
   <i name="HFALPHA">      0.00000000</i>
   <i name="MCALPHA">      0.00000000</i>
   <i name="ALDAX">      1.00000000</i>
   <i name="AGGAX">      1.00000000</i>
   <i name="ALDAC">      1.00000000</i>
   <i name="AGGAC">      1.00000000</i>
   <i type="int" name="NKREDX">     1</i>
   <i type="int" name="NKREDY">     1</i>
   <i type="int" name="NKREDZ">     1</i>
   <i type="logical" name="SHIFTRED"> F  </i>
   <i type="logical" name="ODDONLY"> F  </i>
   <i type="logical" name="EVENONLY"> F  </i>
   <i type="int" name="LMAXFOCK">     0</i>
   <i type="int" name="NMAXFOCKAE">     0</i>
   <i type="logical" name="LFOCKAEDFT"> F  </i>
   <i name="HFSCREEN">      0.00000000</i>
   <i name="HFSCREENC">      0.00000000</i>
   <i type="int" name="NBANDSGWLOW">     0</i>
  </separator>
  <separator name="vdW DFT" >
   <i type="logical" name="LUSE_VDW"> F  </i>
   <i name="Zab_VDW">     -0.84910000</i>
   <i name="PARAM1">      0.12340000</i>
   <i name="PARAM2">      1.00000000</i>
   <i name="PARAM3">      0.00000000</i>
  </separator>
  <separator name="model GW" >
   <i type="int" name="MODEL_GW">     0</i>
   <i name="MODEL_EPS0">     31.62568521</i>
   <i name="MODEL_ALPHA">      1.00000000</i>
  </separator>
  <separator name="linear response parameters" >
   <i type="logical" name="LEPSILON"> F  </i>
   <i type="logical" name="LRPA"> F  </i>
   <i type="logical" name="LNABLA"> F  </i>
   <i type="logical" name="LVEL"> F  </i>
   <i type="int" name="KINTER">     0</i>
   <i name="CSHIFT">      0.10000000</i>
   <i name="OMEGAMAX">     -1.00000000</i>
   <i name="DEG_THRESHOLD">      0.00200000</i>
  </separator>
  <separator name="orbital magnetization" >
   <i type="logical" name="NUCIND"> F  </i>
   <v name="MAGPOS">      0.00000000      0.00000000      0.00000000</v>
   <i type="logical" name="LNICSALL"> T  </i>
   <i type="logical" name="ORBITALMAG"> F  </i>
   <i type="logical" name="LMAGBLOCH"> F  </i>
   <i type="logical" name="LCHIMAG"> F  </i>
   <i type="logical" name="LGAUGE"> T  </i>
   <i type="int" name="MAGATOM">     0</i>
   <v name="MAGDIPOL">      0.00000000      0.00000000      0.00000000</v>
   <v name="AVECCONST">      0.00000000      0.00000000      0.00000000</v>
  </separator>
  <separator name="response functions" >
   <i type="logical" name="LADDER"> F  </i>
   <i type="logical" name="LFXC"> F  </i>
   <i type="logical" name="LHARTREE"> T  </i>
   <i type="int" name="IBSE">     0</i>
   <i type="logical" name="LTCTE"> F  </i>
   <i type="logical" name="LTETE"> F  </i>
   <i type="logical" name="LTRIPLET"> F  </i>
   <i type="logical" name="LFXCEPS"> F  </i>
   <i type="logical" name="LFXHEG"> F  </i>
   <i type="logical" name="L2ORDER"> F  </i>
   <i type="logical" name="LUSEW"> F  </i>
   <i name="ENCUTGW">     -2.00000000</i>
   <i name="ENCUTGWSOFT">     -2.00000000</i>
   <i name="ENCUTLF">     -1.00000000</i>
   <i type="int" name="LMAXMP2">    -1</i>
   <i name="SCISSOR">      0.00000000</i>
   <i type="int" name="NOMEGA">     0</i>
   <i type="int" name="NOMEGAR">     0</i>
   <i type="int" name="NBANDSGW">    -1</i>
   <i type="int" name="NBANDSO">    -1</i>
   <i type="int" name="NBANDSV">    -1</i>
   <i type="int" name="NELM">   100</i>
   <i type="int" name="DIM">     3</i>
   <i type="int" name="ANTIRES">     0</i>
   <i name="OMEGAMAX">    -30.00000000</i>
   <i name="OMEGAMIN">    -30.00000000</i>
   <i name="OMEGATL">   -200.00000000</i>
   <i type="int" name="OMEGAGRID">     0</i>
   <i name="CSHIFT">     -0.10000000</i>
   <i type="logical" name="SELFENERGY"> F  </i>
   <i type="logical" name="LSPECTRAL"> F  </i>
   <i type="logical" name="ODDONLYGW"> F  </i>
   <i type="logical" name="EVENONLYGW"> F  </i>
   <i type="int" name="NKREDLFX">     1</i>
   <i type="int" name="NKREDLFY">     1</i>
   <i type="int" name="NKREDLFZ">     1</i>
   <i type="int" name="MAXMEM">  1800</i>
   <i type="int" name="TELESCOPE">     0</i>
   <i type="int" name="TAUPAR">     1</i>
  </separator>
  <separator name="External order field" >
   <i name="OFIELD_KAPPA">      0.00000000</i>
   <v name="OFIELD_K">      0.00000000      0.00000000      0.00000000</v>
   <i name="OFIELD_Q6_NEAR">      0.00000000</i>
   <i name="OFIELD_Q6_FAR">      0.00000000</i>
   <i name="OFIELD_A">      0.00000000</i>
  </separator>
 </parameters>
 <atominfo>
  <atoms>       4 </atoms>
  <types>       1 </types>
  <array name="atoms" >
   <dimension dim="1">ion</dimension>
   <field type="string">element</field>
   <field type="int">atomtype</field>
   <set>
    <rc><c>C </c><c>   1</c></rc>
    <rc><c>C </c><c>   1</c></rc>
    <rc><c>C </c><c>   1</c></rc>
    <rc><c>C </c><c>   1</c></rc>
   </set>
  </array>
  <array name="atomtypes" >
   <dimension dim="1">type</dimension>
   <field type="int">atomspertype</field>
   <field type="string">element</field>
   <field>mass</field>
   <field>valence</field>
   <field type="string">pseudopotential</field>
   <set>
    <rc><c>   4</c><c>C </c><c>     12.01100000</c><c>      4.00000000</c><c> PAW_PBE C 08Apr2002                    </c></rc>
   </set>
  </array>
 </atominfo>
 <structure name="initialpos" >
  <crystal>
   <varray name="basis" >
    <v>       4.33736014       0.00000000       0.00000000 </v>
    <v>       0.00000000       2.46087376       0.00000000 </v>
    <v>       0.00000000       0.00000000      19.75303644 </v>
   </varray>
   <i name="volume">    210.83790140 </i>
   <varray name="rec_basis" >
    <v>       0.23055498       0.00000000       0.00000000 </v>
    <v>       0.00000000       0.40635973       0.00000000 </v>
    <v>       0.00000000       0.00000000       0.05062513 </v>
   </varray>
  </crystal>
  <varray name="positions" >
   <v>       0.99964215       0.00000000       0.00000000 </v>
   <v>       0.16702452       0.50000000       0.00000000 </v>
   <v>       0.49964215       0.50000000       0.00000000 </v>
   <v>       0.66702452       0.00000000       0.00000000 </v>
  </varray>
 </structure>
 <calculation>
  <scstep>
   <time name="dav">  226.00  227.56</time>
   <time name="total">  228.08  229.68</time>
   <energy>
    <i name="alphaZ">      6.18334092 </i>
    <i name="ewald">   2503.64435966 </i>
    <i name="hartreedc">  -2931.51486862 </i>
    <i name="XCdc">     54.92878700 </i>
    <i name="pawpsdc">    151.32577238 </i>
    <i name="pawaedc">   -155.92769107 </i>
    <i name="eentropy">     -0.00087656 </i>
    <i name="bandstr">    -27.67816156 </i>
    <i name="atom">    588.62352690 </i>
    <i name="e_fr_energy">    189.58418906 </i>
    <i name="e_wo_entrp">    189.58506562 </i>
    <i name="e_0_energy">    189.58462734 </i>
   </energy>
  </scstep>
  <scstep>
   <time name="dav">  348.90  351.09</time>
   <time name="total">  348.91  351.13</time>
   <energy>
    <i name="e_fr_energy">     -8.61903982 </i>
    <i name="e_wo_entrp">     -8.61854882 </i>
    <i name="e_0_energy">     -8.61879432 </i>
   </energy>
  </scstep>
  <scstep>
   <time name="dav">  267.26  268.21</time>
   <time name="total">  290.22  291.24</time>
   <energy>
    <i name="e_fr_energy">    -38.18258268 </i>
    <i name="e_wo_entrp">    -38.18257764 </i>
    <i name="e_0_energy">    -38.18258016 </i>
   </energy>
  </scstep>
  <scstep>
   <time name="diag">   62.39   62.76</time>
   <time name="diis">  271.85  272.30</time>
   <time name="orth">    2.93    3.22</time>
   <time name="total">  360.44  361.65</time>
   <energy>
    <i name="e_fr_energy">    -37.64283423 </i>
    <i name="e_wo_entrp">    -37.64283036 </i>
    <i name="e_0_energy">    -37.64283230 </i>
   </energy>
  </scstep>
  <scstep>
   <time name="diag">   62.58   62.82</time>
   <time name="diis">  260.78  261.07</time>
   <time name="orth">    2.49    2.82</time>
   <time name="total">  352.40  353.57</time>
   <energy>
    <i name="e_fr_energy">    -36.91065562 </i>
    <i name="e_wo_entrp">    -36.91064981 </i>
    <i name="e_0_energy">    -36.91065271 </i>
   </energy>
  </scstep>
  <scstep>
   <time name="diag">   62.32   62.55</time>
   <time name="diis">  292.60  292.66</time>
   <time name="orth">    2.65    2.84</time>
   <time name="total">  385.57  386.16</time>
   <energy>
    <i name="e_fr_energy">    -36.91255243 </i>
    <i name="e_wo_entrp">    -36.91254698 </i>
    <i name="e_0_energy">    -36.91254971 </i>
   </energy>
  </scstep>
  <scstep>
   <time name="diag">   62.31   62.79</time>
   <time name="diis">  260.77  261.95</time>
   <time name="orth">    2.90    3.18</time>
   <time name="total">  349.28  351.93</time>
   <energy>
    <i name="e_fr_energy">    -36.90338887 </i>
    <i name="e_wo_entrp">    -36.90338417 </i>
    <i name="e_0_energy">    -36.90338652 </i>
   </energy>
  </scstep>
  <scstep>
   <time name="diag">   62.49   62.81</time>
   <time name="diis">  267.58  267.80</time>
   <time name="orth">    3.07    3.36</time>
   <time name="total">  360.87  361.74</time>
   <energy>
    <i name="e_fr_energy">    -36.89817582 </i>
    <i name="e_wo_entrp">    -36.89817092 </i>
    <i name="e_0_energy">    -36.89817337 </i>
   </energy>
  </scstep>
  <scstep>
   <time name="diag">   62.08   62.43</time>
   <time name="diis">  263.19  263.26</time>
   <time name="orth">    2.40    3.18</time>
   <time name="total">  350.13  351.48</time>
   <energy>
    <i name="e_fr_energy">    -36.89789058 </i>
    <i name="e_wo_entrp">    -36.89788534 </i>
    <i name="e_0_energy">    -36.89788796 </i>
   </energy>
  </scstep>
  <scstep>
   <time name="diag">   62.23   62.76</time>
   <time name="diis">  263.45  265.84</time>
   <time name="orth">    2.91    3.12</time>
   <time name="total">  356.43  359.59</time>
   <energy>
    <i name="e_fr_energy">    -36.89785837 </i>
    <i name="e_wo_entrp">    -36.89785334 </i>
    <i name="e_0_energy">    -36.89785585 </i>
   </energy>
  </scstep>
  <scstep>
   <time name="diag">   62.19   62.37</time>
   <time name="diis">  269.73  269.78</time>
   <time name="orth">    2.40    2.56</time>
   <time name="total">  357.05  357.49</time>
   <energy>
    <i name="e_fr_energy">    -36.90024659 </i>
    <i name="e_wo_entrp">    -36.90024164 </i>
    <i name="e_0_energy">    -36.90024411 </i>
   </energy>
  </scstep>
  <scstep>
   <time name="diag">   62.74   62.85</time>
   <time name="diis">  248.40  248.44</time>
   <time name="orth">    2.36    3.01</time>
   <time name="total">  334.94  335.88</time>
   <energy>
    <i name="e_fr_energy">    -36.90073605 </i>
    <i name="e_wo_entrp">    -36.90073102 </i>
    <i name="e_0_energy">    -36.90073354 </i>
   </energy>
  </scstep>
  <scstep>
   <time name="diag">   56.17   56.52</time>
   <time name="diis">  243.46  245.06</time>
   <time name="orth">    2.66    2.99</time>
   <time name="total">  324.05  326.40</time>
   <energy>
    <i name="e_fr_energy">    -36.90095993 </i>
    <i name="e_wo_entrp">    -36.90095489 </i>
    <i name="e_0_energy">    -36.90095741 </i>
   </energy>
  </scstep>
  <scstep>
   <time name="diag">   54.14   54.40</time>
   <time name="diis">  236.24  237.52</time>
   <time name="orth">    2.60    2.77</time>
   <time name="total">  314.92  316.83</time>
   <energy>
    <i name="e_fr_energy">    -36.90104249 </i>
    <i name="e_wo_entrp">    -36.90103747 </i>
    <i name="e_0_energy">    -36.90103998 </i>
   </energy>
  </scstep>
  <scstep>
   <time name="diag">   62.35   62.60</time>
   <time name="diis">  264.22  264.55</time>
   <time name="orth">    2.62    3.00</time>
   <time name="total">  353.22  354.25</time>
   <energy>
    <i name="e_fr_energy">    -36.90105204 </i>
    <i name="e_wo_entrp">    -36.90104701 </i>
    <i name="e_0_energy">    -36.90104953 </i>
   </energy>
  </scstep>
  <scstep>
   <time name="diag">   61.04   61.49</time>
   <time name="diis">  257.98  259.72</time>
   <time name="orth">    3.13    3.36</time>
   <time name="total">  349.70  352.18</time>
   <energy>
    <i name="e_fr_energy">    -36.90106427 </i>
    <i name="e_wo_entrp">    -36.90105924 </i>
    <i name="e_0_energy">    -36.90106176 </i>
   </energy>
  </scstep>
  <scstep>
   <time name="diag">   61.90   62.30</time>
   <time name="diis">  265.22  265.29</time>
   <time name="orth">    2.39    2.92</time>
   <time name="total">  351.97  353.15</time>
   <energy>
    <i name="e_fr_energy">    -36.90106919 </i>
    <i name="e_wo_entrp">    -36.90106416 </i>
    <i name="e_0_energy">    -36.90106668 </i>
   </energy>
  </scstep>
  <scstep>
   <time name="diag">   62.31   62.80</time>
   <time name="diis">  261.47  263.35</time>
   <time name="orth">    2.79    3.18</time>
   <time name="total">  354.01  356.88</time>
   <energy>
    <i name="e_fr_energy">    -36.90107027 </i>
    <i name="e_wo_entrp">    -36.90106524 </i>
    <i name="e_0_energy">    -36.90106775 </i>
   </energy>
  </scstep>
  <scstep>
   <time name="diag">   62.20   62.68</time>
   <time name="diis">  268.89  269.68</time>
   <time name="orth">    2.59    2.86</time>
   <time name="total">  358.03  359.61</time>
   <energy>
    <i name="e_fr_energy">    -36.90107099 </i>
    <i name="e_wo_entrp">    -36.90106596 </i>
    <i name="e_0_energy">    -36.90106848 </i>
   </energy>
  </scstep>
  <scstep>
   <time name="diag">   62.17   62.62</time>
   <time name="diis">  202.02  202.06</time>
   <time name="orth">    2.75    3.11</time>
   <time name="total">  292.81  293.90</time>
   <energy>
    <i name="e_fr_energy">    -36.90107104 </i>
    <i name="e_wo_entrp">    -36.90106601 </i>
    <i name="e_0_energy">    -36.90106852 </i>
   </energy>
  </scstep>
  <scstep>
   <time name="diag">   62.42   62.75</time>
   <time name="diis">  200.18  201.34</time>
   <time name="orth">    2.19    3.14</time>
   <time name="total">  287.16  289.73</time>
   <energy>
    <i name="e_fr_energy">    -36.90107105 </i>
    <i name="e_wo_entrp">    -36.90106602 </i>
    <i name="e_0_energy">    -36.90106854 </i>
   </energy>
  </scstep>
  <scstep>
   <time name="diag">   61.67   62.13</time>
   <time name="diis">  182.54  183.51</time>
   <time name="orth">    2.79    3.06</time>
   <time name="total">  269.50  271.29</time>
   <energy>
    <i name="e_fr_energy">    -36.90107105 </i>
    <i name="e_wo_entrp">    -36.90106602 </i>
    <i name="e_0_energy">    -36.90106854 </i>
   </energy>
  </scstep>
  <scstep>
   <time name="diag">   62.26   62.69</time>
   <time name="diis">  170.29  171.42</time>
   <time name="orth">    3.15    3.30</time>
   <time name="total">  263.05  265.03</time>
   <energy>
    <i name="e_fr_energy">    -36.90107105 </i>
    <i name="e_wo_entrp">    -36.90106602 </i>
    <i name="e_0_energy">    -36.90106854 </i>
   </energy>
  </scstep>
  <scstep>
   <time name="diag">   68.15   68.72</time>
   <time name="diis">  173.77  175.24</time>
   <time name="orth">    2.77    2.96</time>
   <time name="total">  270.36  272.65</time>
   <energy>
    <i name="e_fr_energy">    -36.90107105 </i>
    <i name="e_wo_entrp">    -36.90106602 </i>
    <i name="e_0_energy">    -36.90106854 </i>
   </energy>
  </scstep>
  <scstep>
   <time name="diag">   69.47   69.77</time>
   <time name="diis">  164.94  165.78</time>
   <time name="orth">    2.71    2.98</time>
   <time name="total">  239.36  240.77</time>
   <energy>
    <i name="alphaZ">      6.18334092 </i>
    <i name="ewald">   2503.64435966 </i>
    <i name="hartreedc">  -2997.79618453 </i>
    <i name="XCdc">     57.29335532 </i>
    <i name="pawpsdc">    272.07455943 </i>
    <i name="pawaedc">   -277.20070816 </i>
    <i name="eentropy">     -0.00000503 </i>
    <i name="bandstr">   -189.72331557 </i>
    <i name="atom">    588.62352690 </i>
    <i name="e_fr_energy">    -36.90107105 </i>
    <i name="e_wo_entrp">    -36.90106602 </i>
    <i name="e_0_energy">    -36.90106854 </i>
   </energy>
  </scstep>
  <structure>
   <crystal>
    <varray name="basis" >
     <v>       4.33736014       0.00000000       0.00000000 </v>
     <v>       0.00000000       2.46087376       0.00000000 </v>
     <v>       0.00000000       0.00000000      19.75303644 </v>
    </varray>
    <i name="volume">    210.83790140 </i>
    <varray name="rec_basis" >
     <v>       0.23055498       0.00000000       0.00000000 </v>
     <v>       0.00000000       0.40635973       0.00000000 </v>
     <v>       0.00000000       0.00000000       0.05062513 </v>
    </varray>
   </crystal>
   <varray name="positions" >
    <v>       0.99964215       0.00000000       0.00000000 </v>
    <v>       0.16702452       0.50000000       0.00000000 </v>
    <v>       0.49964215       0.50000000       0.00000000 </v>
    <v>       0.66702452       0.00000000       0.00000000 </v>
   </varray>
  </structure>
  <varray name="forces" >
   <v>       0.00090295      -0.00000000      -0.00000000 </v>
   <v>      -0.00090295       0.00000000       0.00000000 </v>
   <v>       0.00090295       0.00000000      -0.00000000 </v>
   <v>      -0.00090295      -0.00000000       0.00000000 </v>
  </varray>
  <varray name="stress" >
   <v>     -24.93936044       0.00000000       0.00000000 </v>
   <v>       0.00000000      -0.00707466       0.00000000 </v>
   <v>       0.00000000       0.00000000      -0.01026829 </v>
  </varray>
  <energy>
   <i name="e_fr_energy">    -36.90107105 </i>
   <i name="e_wo_entrp">    -36.90106854 </i>
   <i name="e_0_energy">     -0.00000503 </i>
  </energy>
  <time name="totalsc"> 8196.77 8241.30</time>
 </calculation>
 <calculation>
  <scstep>
   <time name="dav">  267.44  267.79</time>
   <time name="total">  293.90  294.27</time>
   <energy>
    <i name="alphaZ">      6.18334092 </i>
    <i name="ewald">   2503.64492386 </i>
    <i name="hartreedc">  -2997.79642916 </i>
    <i name="XCdc">     57.29337132 </i>
    <i name="pawpsdc">    272.07455845 </i>
    <i name="pawaedc">   -277.20070714 </i>
    <i name="eentropy">     -0.00000481 </i>
    <i name="bandstr">   -189.72365117 </i>
    <i name="atom">    588.62352690 </i>
    <i name="e_fr_energy">    -36.90107082 </i>
    <i name="e_wo_entrp">    -36.90106602 </i>
    <i name="e_0_energy">    -36.90106842 </i>
   </energy>
  </scstep>
  <scstep>
   <time name="diag">   68.57   68.87</time>
   <time name="diis">  290.20  290.33</time>
   <time name="orth">    2.81    3.38</time>
   <time name="total">  387.85  389.02</time>
   <energy>
    <i name="e_fr_energy">    -36.90107084 </i>
    <i name="e_wo_entrp">    -36.90106603 </i>
    <i name="e_0_energy">    -36.90106843 </i>
   </energy>
  </scstep>
  <scstep>
   <time name="diag">   68.87   69.20</time>
   <time name="diis">  290.11  291.26</time>
   <time name="orth">    2.55    2.93</time>
   <time name="total">  388.09  390.26</time>
   <energy>
    <i name="e_fr_energy">    -36.90107083 </i>
    <i name="e_wo_entrp">    -36.90106601 </i>
    <i name="e_0_energy">    -36.90106842 </i>
   </energy>
  </scstep>
  <scstep>
   <time name="diag">   69.24   69.71</time>
   <time name="diis">  295.04  296.59</time>
   <time name="orth">    3.02    3.14</time>
   <time name="total">  396.09  398.45</time>
   <energy>
    <i name="e_fr_energy">    -36.90107083 </i>
    <i name="e_wo_entrp">    -36.90106601 </i>
    <i name="e_0_energy">    -36.90106842 </i>
   </energy>
  </scstep>
  <scstep>
   <time name="diag">   68.51   68.81</time>
   <time name="diis">  206.94  207.00</time>
   <time name="orth">    2.92    3.13</time>
   <time name="total">  306.79  307.46</time>
   <energy>
    <i name="e_fr_energy">    -36.90107083 </i>
    <i name="e_wo_entrp">    -36.90106601 </i>
    <i name="e_0_energy">    -36.90106842 </i>
   </energy>
  </scstep>
  <scstep>
   <time name="diag">   68.63   68.87</time>
   <time name="diis">  194.57  195.62</time>
   <time name="orth">    2.66    3.42</time>
   <time name="total">  294.55  296.84</time>
   <energy>
    <i name="e_fr_energy">    -36.90107083 </i>
    <i name="e_wo_entrp">    -36.90106601 </i>
    <i name="e_0_energy">    -36.90106842 </i>
   </energy>
  </scstep>
  <scstep>
   <time name="diag">   69.34   69.68</time>
   <time name="diis">  189.68  189.76</time>
   <time name="orth">    3.01    3.27</time>
   <time name="total">  288.85  290.08</time>
   <energy>
    <i name="e_fr_energy">    -36.90107083 </i>
    <i name="e_wo_entrp">    -36.90106601 </i>
    <i name="e_0_energy">    -36.90106842 </i>
   </energy>
  </scstep>
  <scstep>
   <time name="diag">   68.49   68.88</time>
   <time name="diis">  176.68  177.19</time>
   <time name="orth">    2.90    3.12</time>
   <time name="total">  274.51  275.70</time>
   <energy>
    <i name="e_fr_energy">    -36.90107083 </i>
    <i name="e_wo_entrp">    -36.90106601 </i>
    <i name="e_0_energy">    -36.90106842 </i>
   </energy>
  </scstep>
  <scstep>
   <time name="diag">   69.03   69.41</time>
   <time name="diis">  166.50  166.80</time>
   <time name="orth">    2.62    2.80</time>
   <time name="total">  264.26  265.19</time>
   <energy>
    <i name="e_fr_energy">    -36.90107083 </i>
    <i name="e_wo_entrp">    -36.90106601 </i>
    <i name="e_0_energy">    -36.90106842 </i>
   </energy>
  </scstep>
  <scstep>
   <time name="diag">   63.05   63.29</time>
   <time name="diis">  155.42  156.03</time>
   <time name="orth">    3.16    3.28</time>
   <time name="total">  248.09  249.51</time>
   <energy>
    <i name="e_fr_energy">    -36.90107083 </i>
    <i name="e_wo_entrp">    -36.90106601 </i>
    <i name="e_0_energy">    -36.90106842 </i>
   </energy>
  </scstep>
  <scstep>
   <time name="diag">   62.91   63.25</time>
   <time name="diis">  151.21  151.86</time>
   <time name="orth">    2.86    3.10</time>
   <time name="total">  242.84  244.11</time>
   <energy>
    <i name="e_fr_energy">    -36.90107083 </i>
    <i name="e_wo_entrp">    -36.90106601 </i>
    <i name="e_0_energy">    -36.90106842 </i>
   </energy>
  </scstep>
  <scstep>
   <time name="diag">   68.44   68.78</time>
   <time name="diis">  150.04  151.29</time>
   <time name="orth">    3.23    3.49</time>
   <time name="total">  249.27  251.29</time>
   <energy>
    <i name="e_fr_energy">    -36.90107083 </i>
    <i name="e_wo_entrp">    -36.90106601 </i>
    <i name="e_0_energy">    -36.90106842 </i>
   </energy>
  </scstep>
  <scstep>
   <time name="diag">   68.73   68.99</time>
   <time name="diis">  147.78  147.81</time>
   <time name="orth">    2.74    3.31</time>
   <time name="total">  247.51  248.40</time>
   <energy>
    <i name="e_fr_energy">    -36.90107083 </i>
    <i name="e_wo_entrp">    -36.90106601 </i>
    <i name="e_0_energy">    -36.90106842 </i>
   </energy>
  </scstep>
  <scstep>
   <time name="diag">   68.34   68.79</time>
   <time name="diis">  142.34  143.33</time>
   <time name="orth">    3.37    3.49</time>
   <time name="total">  243.36  245.08</time>
   <energy>
    <i name="e_fr_energy">    -36.90107083 </i>
    <i name="e_wo_entrp">    -36.90106601 </i>
    <i name="e_0_energy">    -36.90106842 </i>
   </energy>
  </scstep>
  <scstep>
   <time name="diag">   68.33   68.77</time>
   <time name="diis">  144.24  145.10</time>
   <time name="orth">    2.79    3.09</time>
   <time name="total">  217.36  218.96</time>
   <energy>
    <i name="alphaZ">      6.18334092 </i>
    <i name="ewald">   2503.64492386 </i>
    <i name="hartreedc">  -2997.79666830 </i>
    <i name="XCdc">     57.29338091 </i>
    <i name="pawpsdc">    272.07553096 </i>
    <i name="pawaedc">   -277.20168396 </i>
    <i name="eentropy">     -0.00000482 </i>
    <i name="bandstr">   -189.72341729 </i>
    <i name="atom">    588.62352690 </i>
    <i name="e_fr_energy">    -36.90107083 </i>
    <i name="e_wo_entrp">    -36.90106601 </i>
    <i name="e_0_energy">    -36.90106842 </i>
   </energy>
  </scstep>
  <structure>
   <crystal>
    <varray name="basis" >
     <v>       4.33736014       0.00000000       0.00000000 </v>
     <v>       0.00000000       2.46087376       0.00000000 </v>
     <v>       0.00000000       0.00000000      19.75303644 </v>
    </varray>
    <i name="volume">    210.83790140 </i>
    <varray name="rec_basis" >
     <v>       0.23055498       0.00000000       0.00000000 </v>
     <v>       0.00000000       0.40635973       0.00000000 </v>
     <v>       0.00000000       0.00000000       0.05062513 </v>
    </varray>
   </crystal>
   <varray name="positions" >
    <v>       0.99965219      -0.00000000      -0.00000000 </v>
    <v>       0.16701447       0.50000000       0.00000000 </v>
    <v>       0.49965219       0.50000000      -0.00000000 </v>
    <v>       0.66701447      -0.00000000       0.00000000 </v>
   </varray>
  </structure>
  <varray name="forces" >
   <v>      -0.00351681      -0.00000000      -0.00000000 </v>
   <v>       0.00351681       0.00000000       0.00000000 </v>
   <v>      -0.00351681      -0.00000000      -0.00000000 </v>
   <v>       0.00351681       0.00000000       0.00000000 </v>
  </varray>
  <varray name="stress" >
   <v>     -24.94959005       0.00000000       0.00000000 </v>
   <v>       0.00000000       0.00755548       0.00000000 </v>
   <v>       0.00000000       0.00000000      -0.01025083 </v>
  </varray>
  <energy>
   <i name="e_fr_energy">    -36.90107083 </i>
   <i name="e_wo_entrp">    -36.90106842 </i>
   <i name="e_0_energy">     -0.00000482 </i>
  </energy>
  <time name="totalsc"> 4438.98 4461.06</time>
 </calculation>
 <calculation>
  <scstep>
   <time name="dav">  271.94  273.25</time>
   <time name="total">  300.48  302.02</time>
   <energy>
    <i name="alphaZ">      6.18334092 </i>
    <i name="ewald">   2503.64447471 </i>
    <i name="hartreedc">  -2997.79647276 </i>
    <i name="XCdc">     57.29336814 </i>
    <i name="pawpsdc">    272.07553088 </i>
    <i name="pawaedc">   -277.20168389 </i>
    <i name="eentropy">     -0.00000500 </i>
    <i name="bandstr">   -189.72315098 </i>
    <i name="atom">    588.62352690 </i>
    <i name="e_fr_energy">    -36.90107107 </i>
    <i name="e_wo_entrp">    -36.90106607 </i>
    <i name="e_0_energy">    -36.90106857 </i>
   </energy>
  </scstep>
  <scstep>
   <time name="diag">   69.52   69.91</time>
   <time name="diis">  287.78  287.85</time>
   <time name="orth">    2.73    3.05</time>
   <time name="total">  390.39  391.32</time>
   <energy>
    <i name="e_fr_energy">    -36.90107108 </i>
    <i name="e_wo_entrp">    -36.90106608 </i>
    <i name="e_0_energy">    -36.90106858 </i>
   </energy>
  </scstep>
  <scstep>
   <time name="diag">   69.13   69.53</time>
   <time name="diis">  268.52  269.62</time>
   <time name="orth">    2.54    2.81</time>
   <time name="total">  365.23  367.33</time>
   <energy>
    <i name="e_fr_energy">    -36.90107107 </i>
    <i name="e_wo_entrp">    -36.90106609 </i>
    <i name="e_0_energy">    -36.90106858 </i>
   </energy>
  </scstep>
  <scstep>
   <time name="diag">   62.41   62.85</time>
   <time name="diis">  274.77  275.54</time>
   <time name="orth">    2.73    3.06</time>
   <time name="total">  362.42  364.32</time>
   <energy>
    <i name="e_fr_energy">    -36.90107107 </i>
    <i name="e_wo_entrp">    -36.90106608 </i>
    <i name="e_0_energy">    -36.90106858 </i>
   </energy>
  </scstep>
  <scstep>
   <time name="diag">   62.64   62.96</time>
   <time name="diis">  186.64  186.71</time>
   <time name="orth">    2.47    2.66</time>
   <time name="total">  253.40  254.01</time>
   <energy>
    <i name="alphaZ">      6.18334092 </i>
    <i name="ewald">   2503.64447471 </i>
    <i name="hartreedc">  -2997.79630686 </i>
    <i name="XCdc">     57.29336099 </i>
    <i name="pawpsdc">    272.07474093 </i>
    <i name="pawaedc">   -277.20089075 </i>
    <i name="eentropy">     -0.00000499 </i>
    <i name="bandstr">   -189.72331294 </i>
    <i name="atom">    588.62352690 </i>
    <i name="e_fr_energy">    -36.90107107 </i>
    <i name="e_wo_entrp">    -36.90106608 </i>
    <i name="e_0_energy">    -36.90106858 </i>
   </energy>
  </scstep>
  <structure>
   <crystal>
    <varray name="basis" >
     <v>       4.33736014       0.00000000       0.00000000 </v>
     <v>       0.00000000       2.46087376       0.00000000 </v>
     <v>       0.00000000       0.00000000      19.75303644 </v>
    </varray>
    <i name="volume">    210.83790140 </i>
    <varray name="rec_basis" >
     <v>       0.23055498       0.00000000       0.00000000 </v>
     <v>       0.00000000       0.40635973       0.00000000 </v>
     <v>       0.00000000       0.00000000       0.05062513 </v>
    </varray>
   </crystal>
   <varray name="positions" >
    <v>       0.99964420      -0.00000000      -0.00000000 </v>
    <v>       0.16702246       0.50000000       0.00000000 </v>
    <v>       0.49964420       0.50000000      -0.00000000 </v>
    <v>       0.66702246      -0.00000000       0.00000000 </v>
   </varray>
  </structure>
  <varray name="forces" >
   <v>       0.00000377      -0.00000000      -0.00000000 </v>
   <v>      -0.00000377      -0.00000000       0.00000000 </v>
   <v>       0.00000377      -0.00000000      -0.00000000 </v>
   <v>      -0.00000377       0.00000000       0.00000000 </v>
  </varray>
  <varray name="stress" >
   <v>     -24.94163118       0.00000000       0.00000000 </v>
   <v>       0.00000000      -0.00389500       0.00000000 </v>
   <v>       0.00000000       0.00000000      -0.01029764 </v>
  </varray>
  <energy>
   <i name="e_fr_energy">    -36.90107107 </i>
   <i name="e_wo_entrp">    -36.90106858 </i>
   <i name="e_0_energy">     -0.00000499 </i>
  </energy>
  <time name="totalsc"> 1758.72 1766.76</time>
 </calculation>
 <calculation>
  <scstep>
   <time name="dav">  196.09  197.33</time>
   <time name="total">  221.18  222.60</time>
   <energy>
    <i name="alphaZ">      6.18334092 </i>
    <i name="ewald">   2503.64447519 </i>
    <i name="hartreedc">  -2997.79630445 </i>
    <i name="XCdc">     57.29336075 </i>
    <i name="pawpsdc">    272.07476030 </i>
    <i name="pawaedc">   -277.20090994 </i>
    <i name="eentropy">     -0.00000499 </i>
    <i name="bandstr">   -189.72331577 </i>
    <i name="atom">    588.62352690 </i>
    <i name="e_fr_energy">    -36.90107107 </i>
    <i name="e_wo_entrp">    -36.90106608 </i>
    <i name="e_0_energy">    -36.90106858 </i>
   </energy>
  </scstep>
  <scstep>
   <time name="diag">   62.47   62.89</time>
   <time name="diis">  154.71  155.66</time>
   <time name="orth">    2.95    3.38</time>
   <time name="total">  247.49  249.59</time>
   <energy>
    <i name="e_fr_energy">    -36.90107107 </i>
    <i name="e_wo_entrp">    -36.90106608 </i>
    <i name="e_0_energy">    -36.90106858 </i>
   </energy>
  </scstep>
  <scstep>
   <time name="diag">   62.53   63.01</time>
   <time name="diis">  150.07  150.51</time>
   <time name="orth">    2.56    3.00</time>
   <time name="total">  242.95  244.46</time>
   <energy>
    <i name="e_fr_energy">    -36.90107107 </i>
    <i name="e_wo_entrp">    -36.90106608 </i>
    <i name="e_0_energy">    -36.90106858 </i>
   </energy>
  </scstep>
  <scstep>
   <time name="diag">   62.46   62.85</time>
   <time name="diis">  149.11  149.21</time>
   <time name="orth">    2.63    2.78</time>
   <time name="total">  239.41  240.25</time>
   <energy>
    <i name="e_fr_energy">    -36.90107107 </i>
    <i name="e_wo_entrp">    -36.90106608 </i>
    <i name="e_0_energy">    -36.90106858 </i>
   </energy>
  </scstep>
  <scstep>
   <time name="diag">   62.46   62.74</time>
   <time name="diis">  137.74  137.77</time>
   <time name="orth">    3.45    3.57</time>
   <time name="total">  228.36  228.98</time>
   <energy>
    <i name="e_fr_energy">    -36.90107107 </i>
    <i name="e_wo_entrp">    -36.90106608 </i>
    <i name="e_0_energy">    -36.90106858 </i>
   </energy>
  </scstep>
  <scstep>
   <time name="diag">   62.79   63.00</time>
   <time name="diis">  135.50  135.73</time>
   <time name="orth">    2.20    3.08</time>
   <time name="total">  202.18  203.63</time>
   <energy>
    <i name="alphaZ">      6.18334092 </i>
    <i name="ewald">   2503.64447519 </i>
    <i name="hartreedc">  -2997.79628253 </i>
    <i name="XCdc">     57.29336044 </i>
    <i name="pawpsdc">    272.07475543 </i>
    <i name="pawaedc">   -277.20090505 </i>
    <i name="eentropy">     -0.00000499 </i>
    <i name="bandstr">   -189.72333739 </i>
    <i name="atom">    588.62352690 </i>
    <i name="e_fr_energy">    -36.90107107 </i>
    <i name="e_wo_entrp">    -36.90106608 </i>
    <i name="e_0_energy">    -36.90106858 </i>
   </energy>
  </scstep>
  <structure>
   <crystal>
    <varray name="basis" >
     <v>       4.33736014       0.00000000       0.00000000 </v>
     <v>       0.00000000       2.46087376       0.00000000 </v>
     <v>       0.00000000       0.00000000      19.75303644 </v>
    </varray>
    <i name="volume">    210.83790140 </i>
    <varray name="rec_basis" >
     <v>       0.23055498       0.00000000       0.00000000 </v>
     <v>       0.00000000       0.40635973       0.00000000 </v>
     <v>       0.00000000       0.00000000       0.05062513 </v>
    </varray>
   </crystal>
   <varray name="positions" >
    <v>       0.99964421      -0.00000000      -0.00000000 </v>
    <v>       0.16702246       0.50000000       0.00000000 </v>
    <v>       0.49964421       0.50000000      -0.00000000 </v>
    <v>       0.66702246      -0.00000000       0.00000000 </v>
   </varray>
  </structure>
  <varray name="forces" >
   <v>      -0.00000635      -0.00000000      -0.00000000 </v>
   <v>       0.00000635      -0.00000000       0.00000000 </v>
   <v>      -0.00000635      -0.00000000      -0.00000000 </v>
   <v>       0.00000635       0.00000000       0.00000000 </v>
  </varray>
  <varray name="stress" >
   <v>     -24.94147003       0.00000000       0.00000000 </v>
   <v>       0.00000000      -0.00403268       0.00000000 </v>
   <v>       0.00000000       0.00000000      -0.01028316 </v>
  </varray>
  <energy>
   <i name="e_fr_energy">    -36.90107107 </i>
   <i name="e_wo_entrp">    -36.90106858 </i>
   <i name="e_0_energy">     -0.00000499 </i>
  </energy>
  <time name="totalsc"> 1470.56 1479.09</time>
 </calculation>
 <calculation>
  <scstep>
   <time name="dav">  185.66  186.61</time>
   <time name="total">  211.93  213.01</time>
   <energy>
    <i name="alphaZ">      6.18334092 </i>
    <i name="ewald">   2503.64447489 </i>
    <i name="hartreedc">  -2997.79627998 </i>
    <i name="XCdc">     57.29336041 </i>
    <i name="pawpsdc">    272.07475558 </i>
    <i name="pawaedc">   -277.20090520 </i>
    <i name="eentropy">     -0.00000499 </i>
    <i name="bandstr">   -189.72333961 </i>
    <i name="atom">    588.62352690 </i>
    <i name="e_fr_energy">    -36.90107107 </i>
    <i name="e_wo_entrp">    -36.90106608 </i>
    <i name="e_0_energy">    -36.90106858 </i>
   </energy>
  </scstep>
  <scstep>
   <time name="diag">   62.47   62.95</time>
   <time name="diis">  128.49  128.86</time>
   <time name="orth">    3.20    3.33</time>
   <time name="total">  217.28  218.29</time>
   <energy>
    <i name="e_fr_energy">    -36.90107107 </i>
    <i name="e_wo_entrp">    -36.90106608 </i>
    <i name="e_0_energy">    -36.90106858 </i>
   </energy>
  </scstep>
  <scstep>
   <time name="diag">   62.51   62.72</time>
   <time name="diis">  119.88  120.47</time>
   <time name="orth">    3.01    3.19</time>
   <time name="total">  213.68  214.89</time>
   <energy>
    <i name="e_fr_energy">    -36.90107107 </i>
    <i name="e_wo_entrp">    -36.90106608 </i>
    <i name="e_0_energy">    -36.90106858 </i>
   </energy>
  </scstep>
  <scstep>
   <time name="diag">   62.26   62.63</time>
   <time name="diis">  115.93  116.37</time>
   <time name="orth">    2.91    3.40</time>
   <time name="total">  207.98  209.36</time>
   <energy>
    <i name="e_fr_energy">    -36.90107107 </i>
    <i name="e_wo_entrp">    -36.90106608 </i>
    <i name="e_0_energy">    -36.90106858 </i>
   </energy>
  </scstep>
  <scstep>
   <time name="diag">   62.46   62.93</time>
   <time name="diis">  126.70  127.26</time>
   <time name="orth">    3.16    3.33</time>
   <time name="total">  193.99  195.20</time>
   <energy>
    <i name="alphaZ">      6.18334092 </i>
    <i name="ewald">   2503.64447489 </i>
    <i name="hartreedc">  -2997.79628243 </i>
    <i name="XCdc">     57.29336052 </i>
    <i name="pawpsdc">    272.07475686 </i>
    <i name="pawaedc">   -277.20090650 </i>
    <i name="eentropy">     -0.00000499 </i>
    <i name="bandstr">   -189.72333725 </i>
    <i name="atom">    588.62352690 </i>
    <i name="e_fr_energy">    -36.90107107 </i>
    <i name="e_wo_entrp">    -36.90106608 </i>
    <i name="e_0_energy">    -36.90106858 </i>
   </energy>
  </scstep>
  <structure>
   <crystal>
    <varray name="basis" >
     <v>       4.33736014       0.00000000       0.00000000 </v>
     <v>       0.00000000       2.46087376       0.00000000 </v>
     <v>       0.00000000       0.00000000      19.75303644 </v>
    </varray>
    <i name="volume">    210.83790140 </i>
    <varray name="rec_basis" >
     <v>       0.23055498       0.00000000       0.00000000 </v>
     <v>       0.00000000       0.40635973       0.00000000 </v>
     <v>       0.00000000       0.00000000       0.05062513 </v>
    </varray>
   </crystal>
   <varray name="positions" >
    <v>       0.99964421      -0.00000000      -0.00000000 </v>
    <v>       0.16702246       0.50000000       0.00000000 </v>
    <v>       0.49964421       0.50000000      -0.00000000 </v>
    <v>       0.66702246      -0.00000000       0.00000000 </v>
   </varray>
  </structure>
  <varray name="forces" >
   <v>      -0.00000016       0.00000000      -0.00000000 </v>
   <v>       0.00000016      -0.00000000       0.00000000 </v>
   <v>      -0.00000016      -0.00000000      -0.00000000 </v>
   <v>       0.00000016       0.00000000       0.00000000 </v>
  </varray>
  <varray name="stress" >
   <v>     -24.94144186       0.00000000       0.00000000 </v>
   <v>       0.00000000      -0.00407343       0.00000000 </v>
   <v>       0.00000000       0.00000000      -0.01025876 </v>
  </varray>
  <energy>
   <i name="e_fr_energy">    -36.90107107 </i>
   <i name="e_wo_entrp">    -36.90106858 </i>
   <i name="e_0_energy">     -0.00000499 </i>
  </energy>
  <time name="totalsc"> 1129.33 1135.56</time>
  <eigenvalues>
   <array>
    <dimension dim="1">band</dimension>
    <dimension dim="2">kpoint</dimension>
    <dimension dim="3">spin</dimension>
    <field>eigene</field>
    <field>occ</field>
    <set>
     <set comment="spin 1">
      <set comment="kpoint 1">
       <r>  -22.1499    1.0000 </r>
       <r>  -17.1665    1.0000 </r>
       <r>  -15.8913    1.0000 </r>
       <r>  -10.2789    1.0000 </r>
       <r>   -8.9424    1.0000 </r>
       <r>   -5.9220    1.0000 </r>
       <r>   -5.7490    1.0000 </r>
       <r>   -5.2476    1.0000 </r>
       <r>   -1.1443    0.0000 </r>
       <r>    0.5363    0.0000 </r>
       <r>    1.3357    0.0000 </r>
       <r>    1.7249    0.0000 </r>
      </set>
      <set comment="kpoint 2">
       <r>  -22.1400    1.0000 </r>
       <r>  -17.3007    1.0000 </r>
       <r>  -15.7419    1.0000 </r>
       <r>  -10.2670    1.0000 </r>
       <r>   -8.9326    1.0000 </r>
       <r>   -5.9657    1.0000 </r>
       <r>   -5.7700    1.0000 </r>
       <r>   -5.3093    1.0000 </r>
       <r>   -1.0667    0.0000 </r>
       <r>    0.5498    0.0000 </r>
       <r>    1.3493    0.0000 </r>
       <r>    1.7387    0.0000 </r>
      </set>
      <set comment="kpoint 3">
       <r>  -22.1101    1.0000 </r>
       <r>  -17.5984    1.0000 </r>
       <r>  -15.3991    1.0000 </r>
       <r>  -10.2315    1.0000 </r>
       <r>   -8.9035    1.0000 </r>
       <r>   -6.0948    1.0000 </r>
       <r>   -5.8320    1.0000 </r>
       <r>   -5.4815    1.0000 </r>
       <r>   -0.8471    0.0000 </r>
       <r>    0.5902    0.0000 </r>
       <r>    1.3903    0.0000 </r>
       <r>    1.7802    0.0000 </r>
      </set>
      <set comment="kpoint 4">
       <r>  -22.0604    1.0000 </r>
       <r>  -17.9472    1.0000 </r>
       <r>  -14.9752    1.0000 </r>
       <r>  -10.1724    1.0000 </r>
       <r>   -8.8550    1.0000 </r>
       <r>   -6.3038    1.0000 </r>
       <r>   -5.9318    1.0000 </r>
       <r>   -5.7346    1.0000 </r>
       <r>   -0.5157    0.0000 </r>
       <r>    0.6576    0.0000 </r>
       <r>    1.4586    0.0000 </r>
       <r>    1.8494    0.0000 </r>
      </set>
      <set comment="kpoint 5">
       <r>  -21.9908    1.0000 </r>
       <r>  -18.3060    1.0000 </r>
       <r>  -14.5119    1.0000 </r>
       <r>  -10.0898    1.0000 </r>
       <r>   -8.7876    1.0000 </r>
       <r>   -6.5845    1.0000 </r>
       <r>   -6.0646    1.0000 </r>
       <r>   -6.0383    1.0000 </r>
       <r>   -0.1033    0.0000 </r>
       <r>    0.7520    0.0000 </r>
       <r>    1.5542    0.0000 </r>
       <r>    1.9462    0.0000 </r>
      </set>
      <set comment="kpoint 6">
       <r>  -21.9015    1.0000 </r>
       <r>  -18.6601    1.0000 </r>
       <r>  -14.0243    1.0000 </r>
       <r>   -9.9838    1.0000 </r>
       <r>   -8.7015    1.0000 </r>
       <r>   -6.9272    1.0000 </r>
       <r>   -6.3696    1.0000 </r>
       <r>   -6.2247    1.0000 </r>
       <r>    0.3655    0.0000 </r>
       <r>    0.8734    0.0000 </r>
       <r>    1.6770    0.0000 </r>
       <r>    2.0707    0.0000 </r>
      </set>
      <set comment="kpoint 7">
       <r>  -21.7924    1.0000 </r>
       <r>  -19.0034    1.0000 </r>
       <r>  -13.5195    1.0000 </r>
       <r>   -9.8547    1.0000 </r>
       <r>   -8.5973    1.0000 </r>
       <r>   -7.3220    1.0000 </r>
       <r>   -6.7124    1.0000 </r>
       <r>   -6.4060    1.0000 </r>
       <r>    0.8734    0.0000 </r>
       <r>    1.0217    0.0000 </r>
       <r>    1.8270    0.0000 </r>
       <r>    2.2229    0.0000 </r>
      </set>
      <set comment="kpoint 8">
       <r>  -21.6637    1.0000 </r>
       <r>  -19.3329    1.0000 </r>
       <r>  -13.0015    1.0000 </r>
       <r>   -9.7026    1.0000 </r>
       <r>   -8.4756    1.0000 </r>
       <r>   -7.7592    1.0000 </r>
       <r>   -7.0564    1.0000 </r>
       <r>   -6.6025    1.0000 </r>
       <r>    1.1971    0.0000 </r>
       <r>    1.4077    0.0000 </r>
       <r>    2.0041    0.0000 </r>
       <r>    2.4027    0.0000 </r>
      </set>
      <set comment="kpoint 9">
       <r>  -21.5154    1.0000 </r>
       <r>  -19.6468    1.0000 </r>
       <r>  -12.4732    1.0000 </r>
       <r>   -9.5279    1.0000 </r>
       <r>   -8.3372    1.0000 </r>
       <r>   -8.2301    1.0000 </r>
       <r>   -7.3945    1.0000 </r>
       <r>   -6.8087    1.0000 </r>
       <r>    1.3993    0.0000 </r>
       <r>    1.9586    0.0000 </r>
       <r>    2.2081    0.0000 </r>
       <r>    2.6102    0.0000 </r>
      </set>
      <set comment="kpoint 10">
       <r>  -21.3477    1.0000 </r>
       <r>  -19.9441    1.0000 </r>
       <r>  -11.9372    1.0000 </r>
       <r>   -9.3310    1.0000 </r>
       <r>   -8.7269    1.0000 </r>
       <r>   -8.1832    1.0000 </r>
       <r>   -7.7220    1.0000 </r>
       <r>   -7.0196    1.0000 </r>
       <r>    1.6285    0.0000 </r>
       <r>    2.4388    0.0000 </r>
       <r>    2.5168    0.0000 </r>
       <r>    2.8454    0.0000 </r>
      </set>
      <set comment="kpoint 11">
       <r>  -21.1607    1.0000 </r>
       <r>  -20.2239    1.0000 </r>
       <r>  -11.3962    1.0000 </r>
       <r>   -9.2429    1.0000 </r>
       <r>   -9.1123    1.0000 </r>
       <r>   -8.0357    1.0000 </r>
       <r>   -8.0147    1.0000 </r>
       <r>   -7.2309    1.0000 </r>
       <r>    1.8845    0.0000 </r>
       <r>    2.6955    0.0000 </r>
       <r>    3.0672    0.0000 </r>
       <r>    3.1082    0.0000 </r>
      </set>
      <set comment="kpoint 12">
       <r>  -20.9546    1.0000 </r>
       <r>  -20.4859    1.0000 </r>
       <r>  -10.8528    1.0000 </r>
       <r>   -9.7723    1.0000 </r>
       <r>   -8.8726    1.0000 </r>
       <r>   -8.3331    1.0000 </r>
       <r>   -7.8332    1.0000 </r>
       <r>   -7.4389    1.0000 </r>
       <r>    2.1672    0.0000 </r>
       <r>    2.8122    0.0000 </r>
       <r>    2.9765    0.0000 </r>
       <r>    3.3989    0.0000 </r>
      </set>
      <set comment="kpoint 13">
       <r>  -20.7296    1.0000 </r>
       <r>  -20.7296    1.0000 </r>
       <r>  -10.3104    1.0000 </r>
       <r>  -10.3104    1.0000 </r>
       <r>   -8.6125    1.0000 </r>
       <r>   -8.6125    1.0000 </r>
       <r>   -7.6406    1.0000 </r>
       <r>   -7.6406    1.0000 </r>
       <r>    2.4765    0.0000 </r>
       <r>    2.4765    0.0000 </r>
       <r>    3.2741    0.0000 </r>
       <r>    3.2741    0.0000 </r>
      </set>
      <set comment="kpoint 14">
       <r>  -22.1362    1.0000 </r>
       <r>  -17.1546    1.0000 </r>
       <r>  -15.8796    1.0000 </r>
       <r>  -10.2625    1.0000 </r>
       <r>   -9.0050    1.0000 </r>
       <r>   -5.9497    1.0000 </r>
       <r>   -5.8072    1.0000 </r>
       <r>   -5.2309    1.0000 </r>
       <r>   -1.1473    0.0000 </r>
       <r>    0.5550    0.0000 </r>
       <r>    1.3545    0.0000 </r>
       <r>    1.7440    0.0000 </r>
      </set>
      <set comment="kpoint 15">
       <r>  -22.1262    1.0000 </r>
       <r>  -17.2887    1.0000 </r>
       <r>  -15.7304    1.0000 </r>
       <r>  -10.2506    1.0000 </r>
       <r>   -8.9953    1.0000 </r>
       <r>   -5.9953    1.0000 </r>
       <r>   -5.8257    1.0000 </r>
       <r>   -5.2928    1.0000 </r>
       <r>   -1.0697    0.0000 </r>
       <r>    0.5684    0.0000 </r>
       <r>    1.3682    0.0000 </r>
       <r>    1.7578    0.0000 </r>
      </set>
      <set comment="kpoint 16">
       <r>  -22.0964    1.0000 </r>
       <r>  -17.5861    1.0000 </r>
       <r>  -15.3879    1.0000 </r>
       <r>  -10.2151    1.0000 </r>
       <r>   -8.9661    1.0000 </r>
       <r>   -6.1268    1.0000 </r>
       <r>   -5.8836    1.0000 </r>
       <r>   -5.4653    1.0000 </r>
       <r>   -0.8502    0.0000 </r>
       <r>    0.6089    0.0000 </r>
       <r>    1.4092    0.0000 </r>
       <r>    1.7993    0.0000 </r>
      </set>
      <set comment="kpoint 17">
       <r>  -22.0467    1.0000 </r>
       <r>  -17.9347    1.0000 </r>
       <r>  -14.9645    1.0000 </r>
       <r>  -10.1561    1.0000 </r>
       <r>   -8.9176    1.0000 </r>
       <r>   -6.3355    1.0000 </r>
       <r>   -5.9809    1.0000 </r>
       <r>   -5.7186    1.0000 </r>
       <r>   -0.5189    0.0000 </r>
       <r>    0.6763    0.0000 </r>
       <r>    1.4775    0.0000 </r>
       <r>    1.8685    0.0000 </r>
      </set>
      <set comment="kpoint 18">
       <r>  -21.9771    1.0000 </r>
       <r>  -18.2933    1.0000 </r>
       <r>  -14.5017    1.0000 </r>
       <r>  -10.0735    1.0000 </r>
       <r>   -8.8500    1.0000 </r>
       <r>   -6.6136    1.0000 </r>
       <r>   -6.1132    1.0000 </r>
       <r>   -6.0226    1.0000 </r>
       <r>   -0.1071    0.0000 </r>
       <r>    0.7706    0.0000 </r>
       <r>    1.5730    0.0000 </r>
       <r>    1.9653    0.0000 </r>
      </set>
      <set comment="kpoint 19">
       <r>  -21.8878    1.0000 </r>
       <r>  -18.6473    1.0000 </r>
       <r>  -14.0148    1.0000 </r>
       <r>   -9.9675    1.0000 </r>
       <r>   -8.7638    1.0000 </r>
       <r>   -6.9524    1.0000 </r>
       <r>   -6.3540    1.0000 </r>
       <r>   -6.2740    1.0000 </r>
       <r>    0.3609    0.0000 </r>
       <r>    0.8920    0.0000 </r>
       <r>    1.6958    0.0000 </r>
       <r>    2.0898    0.0000 </r>
      </set>
      <set comment="kpoint 20">
       <r>  -21.7787    1.0000 </r>
       <r>  -18.9904    1.0000 </r>
       <r>  -13.5108    1.0000 </r>
       <r>   -9.8384    1.0000 </r>
       <r>   -8.6594    1.0000 </r>
       <r>   -7.3427    1.0000 </r>
       <r>   -6.6969    1.0000 </r>
       <r>   -6.4566    1.0000 </r>
       <r>    0.8677    0.0000 </r>
       <r>    1.0404    0.0000 </r>
       <r>    1.8458    0.0000 </r>
       <r>    2.2420    0.0000 </r>
      </set>
      <set comment="kpoint 21">
       <r>  -21.6500    1.0000 </r>
       <r>  -19.3198    1.0000 </r>
       <r>  -12.9936    1.0000 </r>
       <r>   -9.6864    1.0000 </r>
       <r>   -8.5374    1.0000 </r>
       <r>   -7.7754    1.0000 </r>
       <r>   -7.0409    1.0000 </r>
[...]
       <r>   -9.3006    1.0000 </r>
       <r>   -5.5465    1.0000 </r>
       <r>   -5.5465    1.0000 </r>
       <r>   -0.4628    0.0000 </r>
       <r>   -0.4628    0.0000 </r>
       <r>    4.4146    0.0000 </r>
       <r>    4.4146    0.0000 </r>
      </set>
      <set comment="kpoint 209">
       <r>  -18.7088    1.0000 </r>
       <r>  -16.9022    1.0000 </r>
       <r>  -14.1513    1.0000 </r>
       <r>  -12.4994    1.0000 </r>
       <r>  -12.3491    1.0000 </r>
       <r>  -10.8285    1.0000 </r>
       <r>   -6.3329    1.0000 </r>
       <r>   -4.4502    1.0000 </r>
       <r>   -1.1170    0.0000 </r>
       <r>    1.0461    0.0000 </r>
       <r>    5.2895    0.0000 </r>
       <r>    6.0666    0.0000 </r>
      </set>
      <set comment="kpoint 210">
       <r>  -18.6994    1.0000 </r>
       <r>  -16.8948    1.0000 </r>
       <r>  -14.2252    1.0000 </r>
       <r>  -12.5684    1.0000 </r>
       <r>  -12.2675    1.0000 </r>
       <r>  -10.7619    1.0000 </r>
       <r>   -6.3244    1.0000 </r>
       <r>   -4.4537    1.0000 </r>
       <r>   -1.1247    0.0000 </r>
       <r>    1.0224    0.0000 </r>
       <r>    5.3026    0.0000 </r>
       <r>    6.0821    0.0000 </r>
      </set>
      <set comment="kpoint 211">
       <r>  -18.6712    1.0000 </r>
       <r>  -16.8729    1.0000 </r>
       <r>  -14.4147    1.0000 </r>
       <r>  -12.7479    1.0000 </r>
       <r>  -12.0550    1.0000 </r>
       <r>  -10.5903    1.0000 </r>
       <r>   -6.2989    1.0000 </r>
       <r>   -4.4650    1.0000 </r>
       <r>   -1.1459    0.0000 </r>
       <r>    0.9528    0.0000 </r>
       <r>    5.3420    0.0000 </r>
       <r>    6.1282    0.0000 </r>
      </set>
      <set comment="kpoint 212">
       <r>  -18.6242    1.0000 </r>
       <r>  -16.8380    1.0000 </r>
       <r>  -14.6641    1.0000 </r>
       <r>  -12.9905    1.0000 </r>
       <r>  -11.7671    1.0000 </r>
       <r>  -10.3632    1.0000 </r>
       <r>   -6.2569    1.0000 </r>
       <r>   -4.4852    1.0000 </r>
       <r>   -1.1762    0.0000 </r>
       <r>    0.8420    0.0000 </r>
       <r>    5.4070    0.0000 </r>
       <r>    6.2040    0.0000 </r>
      </set>
      <set comment="kpoint 213">
       <r>  -18.5587    1.0000 </r>
       <r>  -16.7927    1.0000 </r>
       <r>  -14.9344    1.0000 </r>
       <r>  -13.2628    1.0000 </r>
       <r>  -11.4425    1.0000 </r>
       <r>  -10.1170    1.0000 </r>
       <r>   -6.1987    1.0000 </r>
       <r>   -4.5165    1.0000 </r>
       <r>   -1.2089    0.0000 </r>
       <r>    0.6968    0.0000 </r>
       <r>    5.4951    0.0000 </r>
       <r>    6.1811    0.0000 </r>
      </set>
      <set comment="kpoint 214">
       <r>  -18.4748    1.0000 </r>
       <r>  -16.7426    1.0000 </r>
       <r>  -15.2008    1.0000 </r>
       <r>  -13.5466    1.0000 </r>
       <r>  -11.1034    1.0000 </r>
       <r>   -9.8745    1.0000 </r>
       <r>   -6.1249    1.0000 </r>
       <r>   -4.5612    1.0000 </r>
       <r>   -1.2359    0.0000 </r>
       <r>    0.5252    0.0000 </r>
       <r>    5.5606    0.0000 </r>
       <r>    5.7451    0.0000 </r>
      </set>
      <set comment="kpoint 215">
       <r>  -18.3728    1.0000 </r>
       <r>  -16.6994    1.0000 </r>
       <r>  -15.4416    1.0000 </r>
       <r>  -13.8315    1.0000 </r>
       <r>  -10.7642    1.0000 </r>
       <r>   -9.6516    1.0000 </r>
       <r>   -6.0367    1.0000 </r>
       <r>   -4.6215    1.0000 </r>
       <r>   -1.2495    0.0000 </r>
       <r>    0.3353    0.0000 </r>
       <r>    5.2288    0.0000 </r>
       <r>    5.7880    0.0000 </r>
      </set>
      <set comment="kpoint 216">
       <r>  -18.2530    1.0000 </r>
       <r>  -16.6852    1.0000 </r>
       <r>  -15.6290    1.0000 </r>
       <r>  -14.1114    1.0000 </r>
       <r>  -10.4357    1.0000 </r>
       <r>   -9.4604    1.0000 </r>
       <r>   -5.9350    1.0000 </r>
       <r>   -4.6986    1.0000 </r>
       <r>   -1.2427    0.0000 </r>
       <r>    0.1347    0.0000 </r>
       <r>    4.8662    0.0000 </r>
       <r>    5.8364    0.0000 </r>
      </set>
      <set comment="kpoint 217">
       <r>  -18.1161    1.0000 </r>
       <r>  -16.7319    1.0000 </r>
       <r>  -15.7278    1.0000 </r>
       <r>  -14.3821    1.0000 </r>
       <r>  -10.1274    1.0000 </r>
       <r>   -9.3114    1.0000 </r>
       <r>   -5.8215    1.0000 </r>
       <r>   -4.7925    1.0000 </r>
       <r>   -1.2108    0.0000 </r>
       <r>   -0.0695    0.0000 </r>
       <r>    4.5740    0.0000 </r>
       <r>    5.3894    0.0000 </r>
      </set>
      <set comment="kpoint 218">
       <r>  -17.9628    1.0000 </r>
       <r>  -16.8530    1.0000 </r>
       <r>  -15.7224    1.0000 </r>
       <r>  -14.6405    1.0000 </r>
       <r>   -9.8485    1.0000 </r>
       <r>   -9.2131    1.0000 </r>
       <r>   -5.6980    1.0000 </r>
       <r>   -4.9018    1.0000 </r>
       <r>   -1.1509    0.0000 </r>
       <r>   -0.2709    0.0000 </r>
       <r>    4.3641    0.0000 </r>
       <r>    5.0012    0.0000 </r>
      </set>
      <set comment="kpoint 219">
       <r>  -17.7942    1.0000 </r>
       <r>  -17.0258    1.0000 </r>
       <r>  -15.6342    1.0000 </r>
       <r>  -14.8840    1.0000 </r>
       <r>   -9.6078    1.0000 </r>
       <r>   -9.1721    1.0000 </r>
       <r>   -5.5666    1.0000 </r>
       <r>   -5.0238    1.0000 </r>
       <r>   -1.0626    0.0000 </r>
       <r>   -0.4641    0.0000 </r>
       <r>    4.2434    0.0000 </r>
       <r>    4.6814    0.0000 </r>
      </set>
      <set comment="kpoint 220">
       <r>  -17.6121    1.0000 </r>
       <r>  -17.2206    1.0000 </r>
       <r>  -15.4922    1.0000 </r>
       <r>  -15.1097    1.0000 </r>
       <r>   -9.4137    1.0000 </r>
       <r>   -9.1919    1.0000 </r>
       <r>   -5.4302    1.0000 </r>
       <r>   -5.1552    1.0000 </r>
       <r>   -0.9469    0.0000 </r>
       <r>   -0.6441    0.0000 </r>
       <r>    4.2159    0.0000 </r>
       <r>    4.4391    0.0000 </r>
      </set>
      <set comment="kpoint 221">
       <r>  -17.4192    1.0000 </r>
       <r>  -17.4192    1.0000 </r>
       <r>  -15.3142    1.0000 </r>
       <r>  -15.3142    1.0000 </r>
       <r>   -9.2734    1.0000 </r>
       <r>   -9.2734    1.0000 </r>
       <r>   -5.2919    1.0000 </r>
       <r>   -5.2919    1.0000 </r>
       <r>   -0.8063    0.0000 </r>
       <r>   -0.8063    0.0000 </r>
       <r>    4.2821    0.0000 </r>
       <r>    4.2821    0.0000 </r>
      </set>
      <set comment="kpoint 222">
       <r>  -18.2824    1.0000 </r>
       <r>  -17.3754    1.0000 </r>
       <r>  -13.7689    1.0000 </r>
       <r>  -12.9422    1.0000 </r>
       <r>  -12.0007    1.0000 </r>
       <r>  -11.2355    1.0000 </r>
       <r>   -5.8733    1.0000 </r>
       <r>   -4.9263    1.0000 </r>
       <r>   -0.6090    0.0000 </r>
       <r>    0.4748    0.0000 </r>
       <r>    5.8935    0.0000 </r>
       <r>    6.6288    0.0000 </r>
      </set>
      <set comment="kpoint 223">
       <r>  -18.2732    1.0000 </r>
       <r>  -17.3669    1.0000 </r>
       <r>  -13.8431    1.0000 </r>
       <r>  -13.0134    1.0000 </r>
       <r>  -11.9215    1.0000 </r>
       <r>  -11.1641    1.0000 </r>
       <r>   -5.8661    1.0000 </r>
       <r>   -4.9244    1.0000 </r>
       <r>   -0.6235    0.0000 </r>
       <r>    0.4531    0.0000 </r>
       <r>    5.9066    0.0000 </r>
       <r>    6.6452    0.0000 </r>
      </set>
      <set comment="kpoint 224">
       <r>  -18.2455    1.0000 </r>
       <r>  -17.3416    1.0000 </r>
       <r>  -14.0340    1.0000 </r>
       <r>  -13.1980    1.0000 </r>
       <r>  -11.7162    1.0000 </r>
       <r>  -10.9797    1.0000 </r>
       <r>   -5.8447    1.0000 </r>
       <r>   -4.9188    1.0000 </r>
       <r>   -0.6653    0.0000 </r>
       <r>    0.3896    0.0000 </r>
       <r>    5.9457    0.0000 </r>
       <r>    6.6939    0.0000 </r>
      </set>
      <set comment="kpoint 225">
       <r>  -18.1994    1.0000 </r>
       <r>  -17.2999    1.0000 </r>
       <r>  -14.2874    1.0000 </r>
       <r>  -13.4458    1.0000 </r>
       <r>  -11.4397    1.0000 </r>
       <r>  -10.7339    1.0000 </r>
       <r>   -5.8094    1.0000 </r>
       <r>   -4.9108    1.0000 </r>
       <r>   -0.7299    0.0000 </r>
       <r>    0.2889    0.0000 </r>
       <r>    6.0099    0.0000 </r>
       <r>    6.7740    0.0000 </r>
      </set>
      <set comment="kpoint 226">
       <r>  -18.1352    1.0000 </r>
       <r>  -17.2427    1.0000 </r>
       <r>  -14.5667    1.0000 </r>
       <r>  -13.7227    1.0000 </r>
       <r>  -11.1304    1.0000 </r>
       <r>  -10.4640    1.0000 </r>
       <r>   -5.7611    1.0000 </r>
       <r>   -4.9020    1.0000 </r>
       <r>   -0.8102    0.0000 </r>
       <r>    0.1578    0.0000 </r>
       <r>    6.0911    0.0000 </r>
       <r>    6.4694    0.0000 </r>
      </set>
      <set comment="kpoint 227">
       <r>  -18.0531    1.0000 </r>
       <r>  -17.1716    1.0000 </r>
       <r>  -14.8512    1.0000 </r>
       <r>  -14.0097    1.0000 </r>
       <r>  -10.8108    1.0000 </r>
       <r>  -10.1928    1.0000 </r>
       <r>   -5.7008    1.0000 </r>
       <r>   -4.8949    1.0000 </r>
       <r>   -0.8977    0.0000 </r>
       <r>    0.0043    0.0000 </r>
       <r>    5.9110    0.0000 </r>
       <r>    6.2517    0.0000 </r>
      </set>
      <set comment="kpoint 228">
       <r>  -17.9538    1.0000 </r>
       <r>  -17.0895    1.0000 </r>
       <r>  -15.1282    1.0000 </r>
       <r>  -14.2964    1.0000 </r>
       <r>  -10.4954    1.0000 </r>
       <r>   -9.9356    1.0000 </r>
       <r>   -5.6298    1.0000 </r>
       <r>   -4.8924    1.0000 </r>
       <r>   -0.9830    0.0000 </r>
       <r>   -0.1631    0.0000 </r>
       <r>    5.4566    0.0000 </r>
       <r>    6.0094    0.0000 </r>
      </set>
      <set comment="kpoint 229">
       <r>  -17.8377    1.0000 </r>
       <r>  -17.0020    1.0000 </r>
       <r>  -15.3865    1.0000 </r>
       <r>  -14.5765    1.0000 </r>
       <r>  -10.1957    1.0000 </r>
       <r>   -9.7047    1.0000 </r>
       <r>   -5.5502    1.0000 </r>
       <r>   -4.8977    1.0000 </r>
       <r>   -1.0573    0.0000 </r>
       <r>   -0.3362    0.0000 </r>
       <r>    5.0506    0.0000 </r>
       <r>    5.5382    0.0000 </r>
      </set>
      <set comment="kpoint 230">
       <r>  -17.7061    1.0000 </r>
       <r>  -16.9200    1.0000 </r>
       <r>  -15.6116    1.0000 </r>
       <r>  -14.8453    1.0000 </r>
       <r>   -9.9216    1.0000 </r>
       <r>   -9.5104    1.0000 </r>
       <r>   -5.4640    1.0000 </r>
       <r>   -4.9137    1.0000 </r>
       <r>   -1.1122    0.0000 </r>
       <r>   -0.5072    0.0000 </r>
       <r>    4.7122    0.0000 </r>
       <r>    5.1224    0.0000 </r>
      </set>
      <set comment="kpoint 231">
       <r>  -17.5607    1.0000 </r>
       <r>  -16.8651    1.0000 </r>
       <r>  -15.7801    1.0000 </r>
       <r>  -15.0988    1.0000 </r>
       <r>   -9.6823    1.0000 </r>
       <r>   -9.3619    1.0000 </r>
       <r>   -5.3741    1.0000 </r>
       <r>   -4.9429    1.0000 </r>
       <r>   -1.1410    0.0000 </r>
       <r>   -0.6691    0.0000 </r>
       <r>    4.4513    0.0000 </r>
       <r>    4.7722    0.0000 </r>
      </set>
      <set comment="kpoint 232">
       <r>  -17.4042    1.0000 </r>
       <r>  -16.8692    1.0000 </r>
       <r>  -15.8585    1.0000 </r>
       <r>  -15.3328    1.0000 </r>
       <r>   -9.4868    1.0000 </r>
       <r>   -9.2669    1.0000 </r>
       <r>   -5.2837    1.0000 </r>
       <r>   -4.9866    1.0000 </r>
       <r>   -1.1393    0.0000 </r>
       <r>   -0.8151    0.0000 </r>
       <r>    4.2760    0.0000 </r>
       <r>    4.4968    0.0000 </r>
      </set>
      <set comment="kpoint 233">
       <r>  -17.2418    1.0000 </r>
       <r>  -16.9490    1.0000 </r>
       <r>  -15.8293    1.0000 </r>
       <r>  -15.5411    1.0000 </r>
       <r>   -9.3428    1.0000 </r>
       <r>   -9.2308    1.0000 </r>
       <r>   -5.1963    1.0000 </r>
       <r>   -5.0447    1.0000 </r>
       <r>   -1.1046    0.0000 </r>
       <r>   -0.9396    0.0000 </r>
       <r>    4.1919    0.0000 </r>
       <r>    4.3045    0.0000 </r>
      </set>
      <set comment="kpoint 234">
       <r>  -17.0836    1.0000 </r>
       <r>  -17.0836    1.0000 </r>
       <r>  -15.7132    1.0000 </r>
       <r>  -15.7132    1.0000 </r>
       <r>   -9.2563    1.0000 </r>
       <r>   -9.2563    1.0000 </r>
       <r>   -5.1155    1.0000 </r>
       <r>   -5.1155    1.0000 </r>
       <r>   -1.0373    0.0000 </r>
       <r>   -1.0373    0.0000 </r>
       <r>    4.2016    0.0000 </r>
       <r>    4.2016    0.0000 </r>
      </set>
      <set comment="kpoint 235">
       <r>  -17.8370    1.0000 </r>
       <r>  -17.8370    1.0000 </r>
       <r>  -13.3657    1.0000 </r>
       <r>  -13.3657    1.0000 </r>
       <r>  -11.6276    1.0000 </r>
       <r>  -11.6276    1.0000 </r>
       <r>   -5.4027    1.0000 </r>
       <r>   -5.4027    1.0000 </r>
       <r>   -0.0777    0.0000 </r>
       <r>   -0.0777    0.0000 </r>
       <r>    6.5295    0.0000 </r>
       <r>    6.5295    0.0000 </r>
      </set>
      <set comment="kpoint 236">
       <r>  -17.8280    1.0000 </r>
       <r>  -17.8280    1.0000 </r>
       <r>  -13.4387    1.0000 </r>
       <r>  -13.4387    1.0000 </r>
       <r>  -11.5520    1.0000 </r>
       <r>  -11.5520    1.0000 </r>
       <r>   -5.3975    1.0000 </r>
       <r>   -5.3975    1.0000 </r>
       <r>   -0.0965    0.0000 </r>
       <r>   -0.0965    0.0000 </r>
       <r>    6.5425    0.0000 </r>
       <r>    6.5425    0.0000 </r>
      </set>
      <set comment="kpoint 237">
       <r>  -17.8011    1.0000 </r>
       <r>  -17.8011    1.0000 </r>
       <r>  -13.6273    1.0000 </r>
       <r>  -13.6273    1.0000 </r>
       <r>  -11.3562    1.0000 </r>
       <r>  -11.3562    1.0000 </r>
       <r>   -5.3822    1.0000 </r>
       <r>   -5.3822    1.0000 </r>
       <r>   -0.1513    0.0000 </r>
       <r>   -0.1513    0.0000 </r>
       <r>    6.5812    0.0000 </r>
       <r>    6.5812    0.0000 </r>
      </set>
      <set comment="kpoint 238">
       <r>  -17.7565    1.0000 </r>
       <r>  -17.7565    1.0000 </r>
       <r>  -13.8792    1.0000 </r>
       <r>  -13.8792    1.0000 </r>
       <r>  -11.0939    1.0000 </r>
       <r>  -11.0939    1.0000 </r>
       <r>   -5.3574    1.0000 </r>
       <r>   -5.3574    1.0000 </r>
       <r>   -0.2376    0.0000 </r>
       <r>   -0.2376    0.0000 </r>
       <r>    6.6435    0.0000 </r>
       <r>    6.6435    0.0000 </r>
      </set>
      <set comment="kpoint 239">
       <r>  -17.6946    1.0000 </r>
       <r>  -17.6946    1.0000 </r>
       <r>  -14.1589    1.0000 </r>
       <r>  -14.1589    1.0000 </r>
       <r>  -10.8030    1.0000 </r>
       <r>  -10.8030    1.0000 </r>
       <r>   -5.3243    1.0000 </r>
       <r>   -5.3243    1.0000 </r>
       <r>   -0.3484    0.0000 </r>
       <r>   -0.3484    0.0000 </r>
       <r>    6.6723    0.0000 </r>
       <r>    6.6723    0.0000 </r>
      </set>
      <set comment="kpoint 240">
       <r>  -17.6160    1.0000 </r>
       <r>  -17.6160    1.0000 </r>
       <r>  -14.4471    1.0000 </r>
       <r>  -14.4471    1.0000 </r>
       <r>  -10.5060    1.0000 </r>
       <r>  -10.5060    1.0000 </r>
       <r>   -5.2846    1.0000 </r>
       <r>   -5.2846    1.0000 </r>
       <r>   -0.4755    0.0000 </r>
       <r>   -0.4755    0.0000 </r>
       <r>    6.2082    0.0000 </r>
       <r>    6.2082    0.0000 </r>
      </set>
      <set comment="kpoint 241">
       <r>  -17.5217    1.0000 </r>
       <r>  -17.5217    1.0000 </r>
       <r>  -14.7328    1.0000 </r>
       <r>  -14.7328    1.0000 </r>
       <r>  -10.2181    1.0000 </r>
       <r>  -10.2181    1.0000 </r>
       <r>   -5.2404    1.0000 </r>
       <r>   -5.2404    1.0000 </r>
       <r>   -0.6100    0.0000 </r>
       <r>   -0.6100    0.0000 </r>
       <r>    5.7169    0.0000 </r>
       <r>    5.7169    0.0000 </r>
      </set>
      <set comment="kpoint 242">
       <r>  -17.4134    1.0000 </r>
       <r>  -17.4134    1.0000 </r>
       <r>  -15.0087    1.0000 </r>
       <r>  -15.0087    1.0000 </r>
       <r>   -9.9509    1.0000 </r>
       <r>   -9.9509    1.0000 </r>
       <r>   -5.1945    1.0000 </r>
       <r>   -5.1945    1.0000 </r>
       <r>   -0.7430    0.0000 </r>
       <r>   -0.7430    0.0000 </r>
       <r>    5.2753    0.0000 </r>
       <r>    5.2753    0.0000 </r>
      </set>
      <set comment="kpoint 243">
       <r>  -17.2940    1.0000 </r>
       <r>  -17.2940    1.0000 </r>
       <r>  -15.2685    1.0000 </r>
       <r>  -15.2685    1.0000 </r>
       <r>   -9.7148    1.0000 </r>
       <r>   -9.7148    1.0000 </r>
       <r>   -5.1500    1.0000 </r>
       <r>   -5.1500    1.0000 </r>
       <r>   -0.8660    0.0000 </r>
       <r>   -0.8660    0.0000 </r>
       <r>    4.8957    0.0000 </r>
       <r>    4.8957    0.0000 </r>
      </set>
      <set comment="kpoint 244">
       <r>  -17.1688    1.0000 </r>
       <r>  -17.1688    1.0000 </r>
       <r>  -15.5046    1.0000 </r>
       <r>  -15.5046    1.0000 </r>
       <r>   -9.5192    1.0000 </r>
       <r>   -9.5192    1.0000 </r>
       <r>   -5.1102    1.0000 </r>
       <r>   -5.1102    1.0000 </r>
       <r>   -0.9712    0.0000 </r>
       <r>   -0.9712    0.0000 </r>
       <r>    4.5880    0.0000 </r>
       <r>    4.5880    0.0000 </r>
      </set>
      <set comment="kpoint 245">
       <r>  -17.0483    1.0000 </r>
       <r>  -17.0483    1.0000 </r>
       <r>  -15.7052    1.0000 </r>
       <r>  -15.7052    1.0000 </r>
       <r>   -9.3724    1.0000 </r>
       <r>   -9.3724    1.0000 </r>
       <r>   -5.0788    1.0000 </r>
       <r>   -5.0788    1.0000 </r>
       <r>   -1.0518    0.0000 </r>
       <r>   -1.0518    0.0000 </r>
       <r>    4.3609    0.0000 </r>
       <r>    4.3609    0.0000 </r>
      </set>
      <set comment="kpoint 246">
       <r>  -16.9531    1.0000 </r>
       <r>  -16.9531    1.0000 </r>
       <r>  -15.8487    1.0000 </r>
       <r>  -15.8487    1.0000 </r>
       <r>   -9.2814    1.0000 </r>
       <r>   -9.2814    1.0000 </r>
       <r>   -5.0585    1.0000 </r>
       <r>   -5.0585    1.0000 </r>
       <r>   -1.1024    0.0000 </r>
       <r>   -1.1024    0.0000 </r>
       <r>    4.2216    0.0000 </r>
       <r>    4.2216    0.0000 </r>
      </set>
      <set comment="kpoint 247">
       <r>  -16.9149    1.0000 </r>
       <r>  -16.9149    1.0000 </r>
       <r>  -15.9031    1.0000 </r>
       <r>  -15.9031    1.0000 </r>
       <r>   -9.2505    1.0000 </r>
       <r>   -9.2505    1.0000 </r>
       <r>   -5.0515    1.0000 </r>
       <r>   -5.0515    1.0000 </r>
       <r>   -1.1197    0.0000 </r>
       <r>   -1.1197    0.0000 </r>
       <r>    4.1746    0.0000 </r>
       <r>    4.1746    0.0000 </r>
      </set>
     </set>
    </set>
   </array>
  </eigenvalues>
  <separator name="orbital magnetization" >
   <v name="MAGDIPOLOUT">      0.00000000      0.00000000      0.00000000</v>
  </separator>
 </calculation>
 <structure name="finalpos" >
  <crystal>
   <varray name="basis" >
    <v>       4.33736014       0.00000000       0.00000000 </v>
    <v>       0.00000000       2.46087376       0.00000000 </v>
    <v>       0.00000000       0.00000000      19.75303644 </v>
   </varray>
   <i name="volume">    210.83790140 </i>
   <varray name="rec_basis" >
    <v>       0.23055498       0.00000000       0.00000000 </v>
    <v>       0.00000000       0.40635973       0.00000000 </v>
    <v>       0.00000000       0.00000000       0.05062513 </v>
   </varray>
  </crystal>
  <varray name="positions" >
   <v>       0.99964421      -0.00000000      -0.00000000 </v>
   <v>       0.16702246       0.50000000       0.00000000 </v>
   <v>       0.49964421       0.50000000      -0.00000000 </v>
   <v>       0.66702246      -0.00000000       0.00000000 </v>
  </varray>
 </structure>
</modeling>
