gr                                      
           1
     4.337360    0.000000    0.000000
     0.000000    2.460874    0.000000
     0.000000    0.000000   19.753036
   C 
   4
Direct configuration=     1
   0.99964215  0.00000000  0.00000000
   0.16702452  0.50000000  0.00000000
   0.49964215  0.50000000  0.00000000
   0.66702452  0.00000000  0.00000000
Direct configuration=     2
   0.99965219 -0.00000000 -0.00000000
   0.16701447  0.50000000  0.00000000
   0.49965219  0.50000000 -0.00000000
   0.66701447 -0.00000000  0.00000000
Direct configuration=     3
   0.99964420 -0.00000000 -0.00000000
   0.16702246  0.50000000  0.00000000
   0.49964420  0.50000000 -0.00000000
   0.66702246 -0.00000000  0.00000000
Direct configuration=     4
   0.99964421 -0.00000000 -0.00000000
   0.16702246  0.50000000  0.00000000
   0.49964421  0.50000000 -0.00000000
   0.66702246 -0.00000000  0.00000000
Direct configuration=     5
   0.99964421 -0.00000000 -0.00000000
   0.16702246  0.50000000  0.00000000
   0.49964421  0.50000000 -0.00000000
   0.66702246 -0.00000000  0.00000000
