       N       E                     dE             d eps       ncg     rms          rms(c)
DAV:   1     0.190617417246E+03    0.19062E+03   -0.10617E+04  5928   0.274E+03
DAV:   2    -0.896286002473E+01   -0.19958E+03   -0.17733E+03 10392   0.262E+02
DAV:   3    -0.383610010493E+02   -0.29398E+02   -0.28709E+02  7344   0.120E+02    0.734E+00
RMM:   4    -0.376975938983E+02    0.66341E+00   -0.95618E+00  5928   0.266E+01    0.425E+00
RMM:   5    -0.369223793309E+02    0.77521E+00   -0.28567E+00  5930   0.116E+01    0.736E-01
RMM:   6    -0.369233951776E+02   -0.10158E-02   -0.77698E-02  6365   0.203E+00    0.522E-01
RMM:   7    -0.369273634356E+02   -0.39683E-02   -0.35225E-02  5945   0.161E+00    0.354E-01
RMM:   8    -0.369222923968E+02    0.50710E-02   -0.12466E-02  5932   0.625E-01    0.134E-01
RMM:   9    -0.369221690122E+02    0.12338E-03   -0.22039E-02  5930   0.864E-01    0.164E-01
RMM:  10    -0.369219265188E+02    0.24249E-03   -0.20747E-03  5929   0.330E-01    0.323E-02
RMM:  11    -0.369246679560E+02   -0.27414E-02   -0.13946E-03  5930   0.249E-01    0.552E-02
RMM:  12    -0.369250147473E+02   -0.34679E-03   -0.27309E-04  5929   0.112E-01    0.859E-03
RMM:  13    -0.369253099282E+02   -0.29518E-03   -0.77190E-05  5977   0.518E-02    0.526E-03
RMM:  14    -0.369253910814E+02   -0.81153E-04   -0.10524E-05  5970   0.200E-02    0.188E-03
RMM:  15    -0.369254047183E+02   -0.13637E-04   -0.18864E-06  6048   0.685E-03    0.597E-04
RMM:  16    -0.369254162313E+02   -0.11513E-04   -0.32042E-07  6010   0.306E-03    0.373E-04
RMM:  17    -0.369254187294E+02   -0.24981E-05   -0.21269E-08  6144   0.117E-03    0.614E-04
RMM:  18    -0.369254214629E+02   -0.27335E-05   -0.11557E-07  5928   0.217E-03    0.130E-04
RMM:  19    -0.369254216178E+02   -0.15488E-06   -0.25808E-09  6011   0.350E-04    0.584E-05
RMM:  20    -0.369254217169E+02   -0.99076E-07   -0.11511E-09  5167   0.198E-04    0.427E-06
RMM:  21    -0.369254217200E+02   -0.31855E-08   -0.17144E-11  3517   0.449E-05    0.216E-06
RMM:  22    -0.369254217216E+02   -0.15173E-08   -0.24206E-11  3383   0.400E-05    0.155E-06
RMM:  23    -0.369254217217E+02   -0.88448E-10   -0.61871E-12  3179   0.308E-05
   1 F= -.36925422E+02 E0= -.36925358E+02  d E =-.369254E+02
       N       E                     dE             d eps       ncg     rms          rms(c)
DAV:   1    -0.369244589147E+02    0.96281E-03   -0.87166E-02  6772   0.278E+00    0.606E-02
RMM:   2    -0.369244995897E+02   -0.40675E-04   -0.14060E-03  5929   0.334E-01    0.428E-02
RMM:   3    -0.369244539245E+02    0.45665E-04   -0.25527E-04  5953   0.129E-01    0.107E-02
RMM:   4    -0.369244495315E+02    0.43930E-05   -0.15268E-05  6092   0.311E-02    0.305E-03
RMM:   5    -0.369244496827E+02   -0.15125E-06   -0.11758E-06  6176   0.774E-03    0.150E-03
RMM:   6    -0.369244495990E+02    0.83659E-07   -0.19815E-07  6102   0.343E-03    0.110E-04
RMM:   7    -0.369244495992E+02   -0.13119E-09   -0.11247E-08  6091   0.760E-04    0.881E-05
RMM:   8    -0.369244495981E+02    0.10696E-08   -0.84200E-10  5533   0.227E-04    0.136E-05
RMM:   9    -0.369244495985E+02   -0.35925E-09   -0.46898E-11  3868   0.685E-05    0.398E-06
RMM:  10    -0.369244495986E+02   -0.11482E-09   -0.23321E-11  3802   0.526E-05    0.848E-07
RMM:  11    -0.369244495986E+02   -0.50704E-10   -0.99877E-12  3489   0.400E-05
   2 F= -.36924450E+02 E0= -.36924404E+02  d E =0.972123E-03
       N       E                     dE             d eps       ncg     rms          rms(c)
DAV:   1    -0.369254943815E+02   -0.10448E-02   -0.56014E-02  6392   0.223E+00    0.486E-02
RMM:   2    -0.369255187535E+02   -0.24372E-04   -0.88749E-04  5929   0.269E-01    0.343E-02
RMM:   3    -0.369254889003E+02    0.29853E-04   -0.15980E-04  5971   0.102E-01    0.826E-03
RMM:   4    -0.369254862873E+02    0.26130E-05   -0.90152E-06  6078   0.238E-02    0.244E-03
RMM:   5    -0.369254863659E+02   -0.78579E-07   -0.70068E-07  6195   0.605E-03    0.116E-03
RMM:   6    -0.369254863171E+02    0.48715E-07   -0.11684E-07  6094   0.264E-03    0.872E-05
RMM:   7    -0.369254863193E+02   -0.21231E-08   -0.68398E-09  6090   0.595E-04    0.682E-05
RMM:   8    -0.369254863193E+02   -0.84356E-10   -0.47859E-10  4815   0.176E-04
   3 F= -.36925486E+02 E0= -.36925421E+02  d E =-.103672E-02
       N       E                     dE             d eps       ncg     rms          rms(c)
DAV:   1    -0.369254863241E+02   -0.48461E-08   -0.27433E-07  6780   0.498E-03    0.110E-04
RMM:   2    -0.369254863247E+02   -0.55616E-09   -0.44159E-09  5893   0.601E-04    0.774E-05
RMM:   3    -0.369254863248E+02   -0.13438E-09   -0.83490E-10  5844   0.237E-04    0.182E-05
RMM:   4    -0.369254863250E+02   -0.16189E-09   -0.24210E-11  3713   0.602E-05    0.507E-06
RMM:   5    -0.369254863248E+02    0.13017E-09   -0.36497E-11  3751   0.587E-05    0.856E-06
RMM:   6    -0.369254863249E+02   -0.94246E-10   -0.94371E-12  3068   0.339E-05
   4 F= -.36925486E+02 E0= -.36925421E+02  d E =-.557827E-08
       N       E                     dE             d eps       ncg     rms          rms(c)
DAV:   1    -0.369254863246E+02    0.21203E-09    0.57596E-09  4748   0.625E-05    0.114E-06
RMM:   2    -0.369254863250E+02   -0.36039E-09    0.72827E-13  2193   0.192E-05    0.685E-07
RMM:   3    -0.369254863250E+02   -0.55707E-11   -0.14264E-12  2114   0.196E-05    0.351E-08
RMM:   4    -0.369254863252E+02   -0.17178E-09    0.16773E-13  1943   0.192E-05    0.353E-08
RMM:   5    -0.369254863250E+02    0.13097E-09   -0.48186E-13  1821   0.185E-05    0.257E-08
RMM:   6    -0.369254863251E+02   -0.98339E-10   -0.80869E-13  1719   0.181E-05
   5 F= -.36925486E+02 E0= -.36925421E+02  d E =-.198838E-09
       N       E                     dE             d eps       ncg     rms          rms(c)
DAV:   1    -0.369254863247E+02    0.36653E-09    0.58028E-09  4624   0.199E-05    0.362E-07
RMM:   2    -0.369254863250E+02   -0.33731E-09    0.19441E-13  1329   0.621E-06    0.222E-07
RMM:   3    -0.369254863249E+02    0.89244E-10    0.41736E-14  1322   0.626E-06    0.498E-09
RMM:   4    -0.369254863248E+02    0.15370E-09    0.11612E-13  1313   0.628E-06    0.347E-09
RMM:   5    -0.369254863251E+02   -0.34152E-09   -0.27550E-15  1304   0.621E-06    0.212E-09
RMM:   6    -0.369254863248E+02    0.32958E-09   -0.71137E-14  1051   0.622E-06    0.153E-09
RMM:   7    -0.369254863249E+02   -0.16610E-09    0.59705E-14  1101   0.624E-06    0.144E-09
RMM:   8    -0.369254863251E+02   -0.15575E-09   -0.10888E-13  1143   0.625E-06    0.199E-09
RMM:   9    -0.369254863252E+02   -0.11835E-09    0.95109E-14   983   0.618E-06    0.185E-09
RMM:  10    -0.369254863251E+02    0.11789E-09    0.12402E-13  1154   0.618E-06    0.157E-09
RMM:  11    -0.369254863251E+02    0.25466E-10    0.15790E-13   962   0.617E-06
   6 F= -.36925486E+02 E0= -.36925421E+02  d E =0.617320E-10
       N       E                     dE             d eps       ncg     rms          rms(c)
DAV:   1    -0.369254863242E+02    0.89381E-09    0.58053E-09  4448   0.980E-06    0.813E-08
RMM:   2    -0.369254863249E+02   -0.74147E-09   -0.24302E-14   537   0.365E-06    0.498E-08
RMM:   3    -0.369254863249E+02    0.17508E-10    0.00000E+00   642   0.365E-06    0.151E-09
RMM:   4    -0.369254863249E+02    0.26148E-10    0.00000E+00   367   0.365E-06    0.537E-10
RMM:   5    -0.369254863250E+02   -0.15712E-09    0.00000E+00   420   0.365E-06    0.156E-10
RMM:   6    -0.369254863251E+02   -0.38199E-10    0.00000E+00   702   0.365E-06
   7 F= -.36925486E+02 E0= -.36925421E+02  d E =-.247837E-10
