<?xml version="1.0" encoding="ISO-8859-1"?>
<modeling>
 <generator>
  <i name="program" type="string">vasp </i>
  <i name="version" type="string">5.3.5  </i>
  <i name="subversion" type="string">31Mar14 (build Mar 02 2015 18:14:16) complex                          parallel </i>
  <i name="platform" type="string">LinuxIFC </i>
  <i name="date" type="string">2018 08 10 </i>
  <i name="time" type="string">15:18:32 </i>
 </generator>
 <incar>
  <i type="string" name="SYSTEM">  gr</i>
  <i type="string" name="PREC">accurate : accuracy</i>
  <i type="string" name="ALGO"> FAST.</i>
  <i type="int" name="NELM">   100</i>
  <i type="int" name="NELMDL">    -3</i>
  <i type="int" name="NELMIN">     5</i>
  <i type="int" name="IBRION">     1</i>
  <i name="EDIFF">      0.00000000</i>
  <i name="EDIFFG">     -0.00000100</i>
  <i type="int" name="NSW">   400</i>
  <i type="int" name="ISIF">     2</i>
  <i name="ENCUT">   2000.00000000</i>
  <i type="int" name="ISMEAR">     0</i>
  <i name="SIGMA">      0.05000000</i>
  <i type="int" name="NWRITE">     2</i>
  <i type="logical" name="LWAVE"> F  </i>
  <i type="logical" name="LCHARG"> F  </i>
  <i type="int" name="NELM">   100</i>
 </incar>
 <kpoints>
  <generation param="Gamma">
   <v type="int" name="divisions">      24       36        1 </v>
   <v name="usershift">      0.00000000       0.00000000       0.00000000 </v>
   <v name="genvec1">      0.04166667       0.00000000       0.00000000 </v>
   <v name="genvec2">      0.00000000       0.02777778       0.00000000 </v>
   <v name="genvec3">      0.00000000       0.00000000       1.00000000 </v>
   <v name="shift">      0.00000000       0.00000000       0.00000000 </v>
  </generation>
  <varray name="kpointlist" >
   <v>       0.00000000       0.00000000       0.00000000 </v>
   <v>       0.04166667       0.00000000       0.00000000 </v>
   <v>       0.08333333       0.00000000       0.00000000 </v>
   <v>       0.12500000       0.00000000       0.00000000 </v>
   <v>       0.16666667       0.00000000       0.00000000 </v>
   <v>       0.20833333       0.00000000       0.00000000 </v>
   <v>       0.25000000       0.00000000       0.00000000 </v>
   <v>       0.29166667       0.00000000       0.00000000 </v>
   <v>       0.33333333       0.00000000       0.00000000 </v>
   <v>       0.37500000       0.00000000       0.00000000 </v>
   <v>       0.41666667       0.00000000       0.00000000 </v>
   <v>       0.45833333       0.00000000       0.00000000 </v>
   <v>       0.50000000       0.00000000       0.00000000 </v>
   <v>       0.00000000       0.02777778       0.00000000 </v>
   <v>       0.04166667       0.02777778       0.00000000 </v>
   <v>       0.08333333       0.02777778       0.00000000 </v>
   <v>       0.12500000       0.02777778       0.00000000 </v>
   <v>       0.16666667       0.02777778       0.00000000 </v>
   <v>       0.20833333       0.02777778       0.00000000 </v>
   <v>       0.25000000       0.02777778       0.00000000 </v>
   <v>       0.29166667       0.02777778       0.00000000 </v>
   <v>       0.33333333       0.02777778       0.00000000 </v>
   <v>       0.37500000       0.02777778       0.00000000 </v>
   <v>       0.41666667       0.02777778       0.00000000 </v>
   <v>       0.45833333       0.02777778       0.00000000 </v>
   <v>       0.50000000       0.02777778       0.00000000 </v>
   <v>       0.00000000       0.05555556       0.00000000 </v>
   <v>       0.04166667       0.05555556       0.00000000 </v>
   <v>       0.08333333       0.05555556       0.00000000 </v>
   <v>       0.12500000       0.05555556       0.00000000 </v>
   <v>       0.16666667       0.05555556       0.00000000 </v>
   <v>       0.20833333       0.05555556       0.00000000 </v>
   <v>       0.25000000       0.05555556       0.00000000 </v>
   <v>       0.29166667       0.05555556       0.00000000 </v>
   <v>       0.33333333       0.05555556       0.00000000 </v>
   <v>       0.37500000       0.05555556       0.00000000 </v>
   <v>       0.41666667       0.05555556       0.00000000 </v>
   <v>       0.45833333       0.05555556       0.00000000 </v>
   <v>       0.50000000       0.05555556       0.00000000 </v>
   <v>       0.00000000       0.08333333       0.00000000 </v>
   <v>       0.04166667       0.08333333       0.00000000 </v>
   <v>       0.08333333       0.08333333       0.00000000 </v>
   <v>       0.12500000       0.08333333       0.00000000 </v>
   <v>       0.16666667       0.08333333       0.00000000 </v>
   <v>       0.20833333       0.08333333       0.00000000 </v>
   <v>       0.25000000       0.08333333       0.00000000 </v>
   <v>       0.29166667       0.08333333       0.00000000 </v>
   <v>       0.33333333       0.08333333       0.00000000 </v>
   <v>       0.37500000       0.08333333       0.00000000 </v>
   <v>       0.41666667       0.08333333       0.00000000 </v>
   <v>       0.45833333       0.08333333       0.00000000 </v>
   <v>       0.50000000       0.08333333       0.00000000 </v>
   <v>       0.00000000       0.11111111       0.00000000 </v>
   <v>       0.04166667       0.11111111       0.00000000 </v>
   <v>       0.08333333       0.11111111       0.00000000 </v>
   <v>       0.12500000       0.11111111       0.00000000 </v>
   <v>       0.16666667       0.11111111       0.00000000 </v>
   <v>       0.20833333       0.11111111       0.00000000 </v>
   <v>       0.25000000       0.11111111       0.00000000 </v>
   <v>       0.29166667       0.11111111       0.00000000 </v>
   <v>       0.33333333       0.11111111       0.00000000 </v>
   <v>       0.37500000       0.11111111       0.00000000 </v>
   <v>       0.41666667       0.11111111       0.00000000 </v>
   <v>       0.45833333       0.11111111       0.00000000 </v>
   <v>       0.50000000       0.11111111       0.00000000 </v>
   <v>       0.00000000       0.13888889       0.00000000 </v>
   <v>       0.04166667       0.13888889       0.00000000 </v>
   <v>       0.08333333       0.13888889       0.00000000 </v>
   <v>       0.12500000       0.13888889       0.00000000 </v>
   <v>       0.16666667       0.13888889       0.00000000 </v>
   <v>       0.20833333       0.13888889       0.00000000 </v>
   <v>       0.25000000       0.13888889       0.00000000 </v>
   <v>       0.29166667       0.13888889       0.00000000 </v>
   <v>       0.33333333       0.13888889       0.00000000 </v>
   <v>       0.37500000       0.13888889       0.00000000 </v>
   <v>       0.41666667       0.13888889       0.00000000 </v>
   <v>       0.45833333       0.13888889       0.00000000 </v>
   <v>       0.50000000       0.13888889       0.00000000 </v>
   <v>       0.00000000       0.16666667       0.00000000 </v>
   <v>       0.04166667       0.16666667       0.00000000 </v>
   <v>       0.08333333       0.16666667       0.00000000 </v>
   <v>       0.12500000       0.16666667       0.00000000 </v>
   <v>       0.16666667       0.16666667       0.00000000 </v>
   <v>       0.20833333       0.16666667       0.00000000 </v>
   <v>       0.25000000       0.16666667       0.00000000 </v>
   <v>       0.29166667       0.16666667       0.00000000 </v>
   <v>       0.33333333       0.16666667       0.00000000 </v>
   <v>       0.37500000       0.16666667       0.00000000 </v>
   <v>       0.41666667       0.16666667       0.00000000 </v>
   <v>       0.45833333       0.16666667       0.00000000 </v>
   <v>       0.50000000       0.16666667       0.00000000 </v>
   <v>       0.00000000       0.19444444       0.00000000 </v>
   <v>       0.04166667       0.19444444       0.00000000 </v>
   <v>       0.08333333       0.19444444       0.00000000 </v>
   <v>       0.12500000       0.19444444       0.00000000 </v>
   <v>       0.16666667       0.19444444       0.00000000 </v>
   <v>       0.20833333       0.19444444       0.00000000 </v>
   <v>       0.25000000       0.19444444       0.00000000 </v>
   <v>       0.29166667       0.19444444       0.00000000 </v>
   <v>       0.33333333       0.19444444       0.00000000 </v>
   <v>       0.37500000       0.19444444       0.00000000 </v>
   <v>       0.41666667       0.19444444       0.00000000 </v>
   <v>       0.45833333       0.19444444       0.00000000 </v>
   <v>       0.50000000       0.19444444       0.00000000 </v>
   <v>       0.00000000       0.22222222       0.00000000 </v>
   <v>       0.04166667       0.22222222       0.00000000 </v>
   <v>       0.08333333       0.22222222       0.00000000 </v>
   <v>       0.12500000       0.22222222       0.00000000 </v>
   <v>       0.16666667       0.22222222       0.00000000 </v>
   <v>       0.20833333       0.22222222       0.00000000 </v>
   <v>       0.25000000       0.22222222       0.00000000 </v>
   <v>       0.29166667       0.22222222       0.00000000 </v>
   <v>       0.33333333       0.22222222       0.00000000 </v>
   <v>       0.37500000       0.22222222       0.00000000 </v>
   <v>       0.41666667       0.22222222       0.00000000 </v>
   <v>       0.45833333       0.22222222       0.00000000 </v>
   <v>       0.50000000       0.22222222       0.00000000 </v>
   <v>       0.00000000       0.25000000       0.00000000 </v>
   <v>       0.04166667       0.25000000       0.00000000 </v>
   <v>       0.08333333       0.25000000       0.00000000 </v>
   <v>       0.12500000       0.25000000       0.00000000 </v>
   <v>       0.16666667       0.25000000       0.00000000 </v>
   <v>       0.20833333       0.25000000       0.00000000 </v>
   <v>       0.25000000       0.25000000       0.00000000 </v>
   <v>       0.29166667       0.25000000       0.00000000 </v>
   <v>       0.33333333       0.25000000       0.00000000 </v>
   <v>       0.37500000       0.25000000       0.00000000 </v>
   <v>       0.41666667       0.25000000       0.00000000 </v>
   <v>       0.45833333       0.25000000       0.00000000 </v>
   <v>       0.50000000       0.25000000       0.00000000 </v>
   <v>       0.00000000       0.27777778       0.00000000 </v>
   <v>       0.04166667       0.27777778       0.00000000 </v>
   <v>       0.08333333       0.27777778       0.00000000 </v>
   <v>       0.12500000       0.27777778       0.00000000 </v>
   <v>       0.16666667       0.27777778       0.00000000 </v>
   <v>       0.20833333       0.27777778       0.00000000 </v>
   <v>       0.25000000       0.27777778       0.00000000 </v>
   <v>       0.29166667       0.27777778       0.00000000 </v>
   <v>       0.33333333       0.27777778       0.00000000 </v>
   <v>       0.37500000       0.27777778       0.00000000 </v>
   <v>       0.41666667       0.27777778       0.00000000 </v>
   <v>       0.45833333       0.27777778       0.00000000 </v>
   <v>       0.50000000       0.27777778       0.00000000 </v>
   <v>       0.00000000       0.30555556       0.00000000 </v>
   <v>       0.04166667       0.30555556       0.00000000 </v>
   <v>       0.08333333       0.30555556       0.00000000 </v>
   <v>       0.12500000       0.30555556       0.00000000 </v>
   <v>       0.16666667       0.30555556       0.00000000 </v>
   <v>       0.20833333       0.30555556       0.00000000 </v>
   <v>       0.25000000       0.30555556       0.00000000 </v>
   <v>       0.29166667       0.30555556       0.00000000 </v>
   <v>       0.33333333       0.30555556       0.00000000 </v>
   <v>       0.37500000       0.30555556       0.00000000 </v>
   <v>       0.41666667       0.30555556       0.00000000 </v>
   <v>       0.45833333       0.30555556       0.00000000 </v>
   <v>       0.50000000       0.30555556       0.00000000 </v>
   <v>       0.00000000       0.33333333       0.00000000 </v>
   <v>       0.04166667       0.33333333       0.00000000 </v>
   <v>       0.08333333       0.33333333       0.00000000 </v>
   <v>       0.12500000       0.33333333       0.00000000 </v>
   <v>       0.16666667       0.33333333       0.00000000 </v>
   <v>       0.20833333       0.33333333       0.00000000 </v>
   <v>       0.25000000       0.33333333       0.00000000 </v>
   <v>       0.29166667       0.33333333       0.00000000 </v>
   <v>       0.33333333       0.33333333       0.00000000 </v>
   <v>       0.37500000       0.33333333       0.00000000 </v>
   <v>       0.41666667       0.33333333       0.00000000 </v>
   <v>       0.45833333       0.33333333       0.00000000 </v>
   <v>       0.50000000       0.33333333       0.00000000 </v>
   <v>       0.00000000       0.36111111       0.00000000 </v>
   <v>       0.04166667       0.36111111       0.00000000 </v>
   <v>       0.08333333       0.36111111       0.00000000 </v>
   <v>       0.12500000       0.36111111       0.00000000 </v>
   <v>       0.16666667       0.36111111       0.00000000 </v>
   <v>       0.20833333       0.36111111       0.00000000 </v>
   <v>       0.25000000       0.36111111       0.00000000 </v>
   <v>       0.29166667       0.36111111       0.00000000 </v>
   <v>       0.33333333       0.36111111       0.00000000 </v>
   <v>       0.37500000       0.36111111       0.00000000 </v>
   <v>       0.41666667       0.36111111       0.00000000 </v>
   <v>       0.45833333       0.36111111       0.00000000 </v>
   <v>       0.50000000       0.36111111       0.00000000 </v>
   <v>       0.00000000       0.38888889       0.00000000 </v>
   <v>       0.04166667       0.38888889       0.00000000 </v>
   <v>       0.08333333       0.38888889       0.00000000 </v>
   <v>       0.12500000       0.38888889       0.00000000 </v>
   <v>       0.16666667       0.38888889       0.00000000 </v>
   <v>       0.20833333       0.38888889       0.00000000 </v>
   <v>       0.25000000       0.38888889       0.00000000 </v>
   <v>       0.29166667       0.38888889       0.00000000 </v>
   <v>       0.33333333       0.38888889       0.00000000 </v>
   <v>       0.37500000       0.38888889       0.00000000 </v>
   <v>       0.41666667       0.38888889       0.00000000 </v>
   <v>       0.45833333       0.38888889       0.00000000 </v>
   <v>       0.50000000       0.38888889       0.00000000 </v>
   <v>       0.00000000       0.41666667       0.00000000 </v>
   <v>       0.04166667       0.41666667       0.00000000 </v>
   <v>       0.08333333       0.41666667       0.00000000 </v>
   <v>       0.12500000       0.41666667       0.00000000 </v>
   <v>       0.16666667       0.41666667       0.00000000 </v>
   <v>       0.20833333       0.41666667       0.00000000 </v>
   <v>       0.25000000       0.41666667       0.00000000 </v>
   <v>       0.29166667       0.41666667       0.00000000 </v>
   <v>       0.33333333       0.41666667       0.00000000 </v>
   <v>       0.37500000       0.41666667       0.00000000 </v>
   <v>       0.41666667       0.41666667       0.00000000 </v>
   <v>       0.45833333       0.41666667       0.00000000 </v>
   <v>       0.50000000       0.41666667       0.00000000 </v>
   <v>       0.00000000       0.44444444       0.00000000 </v>
   <v>       0.04166667       0.44444444       0.00000000 </v>
   <v>       0.08333333       0.44444444       0.00000000 </v>
   <v>       0.12500000       0.44444444       0.00000000 </v>
   <v>       0.16666667       0.44444444       0.00000000 </v>
   <v>       0.20833333       0.44444444       0.00000000 </v>
   <v>       0.25000000       0.44444444       0.00000000 </v>
   <v>       0.29166667       0.44444444       0.00000000 </v>
   <v>       0.33333333       0.44444444       0.00000000 </v>
   <v>       0.37500000       0.44444444       0.00000000 </v>
   <v>       0.41666667       0.44444444       0.00000000 </v>
   <v>       0.45833333       0.44444444       0.00000000 </v>
   <v>       0.50000000       0.44444444       0.00000000 </v>
   <v>       0.00000000       0.47222222       0.00000000 </v>
   <v>       0.04166667       0.47222222       0.00000000 </v>
   <v>       0.08333333       0.47222222       0.00000000 </v>
   <v>       0.12500000       0.47222222       0.00000000 </v>
   <v>       0.16666667       0.47222222       0.00000000 </v>
   <v>       0.20833333       0.47222222       0.00000000 </v>
   <v>       0.25000000       0.47222222       0.00000000 </v>
   <v>       0.29166667       0.47222222       0.00000000 </v>
   <v>       0.33333333       0.47222222       0.00000000 </v>
   <v>       0.37500000       0.47222222       0.00000000 </v>
   <v>       0.41666667       0.47222222       0.00000000 </v>
   <v>       0.45833333       0.47222222       0.00000000 </v>
   <v>       0.50000000       0.47222222       0.00000000 </v>
   <v>       0.00000000       0.50000000       0.00000000 </v>
   <v>       0.04166667       0.50000000       0.00000000 </v>
   <v>       0.08333333       0.50000000       0.00000000 </v>
   <v>       0.12500000       0.50000000       0.00000000 </v>
   <v>       0.16666667       0.50000000       0.00000000 </v>
   <v>       0.20833333       0.50000000       0.00000000 </v>
   <v>       0.25000000       0.50000000       0.00000000 </v>
   <v>       0.29166667       0.50000000       0.00000000 </v>
   <v>       0.33333333       0.50000000       0.00000000 </v>
   <v>       0.37500000       0.50000000       0.00000000 </v>
   <v>       0.41666667       0.50000000       0.00000000 </v>
   <v>       0.45833333       0.50000000       0.00000000 </v>
   <v>       0.50000000       0.50000000       0.00000000 </v>
  </varray>
  <varray name="weights" >
   <v>       0.00115741 </v>
   <v>       0.00231481 </v>
   <v>       0.00231481 </v>
   <v>       0.00231481 </v>
   <v>       0.00231481 </v>
   <v>       0.00231481 </v>
   <v>       0.00231481 </v>
   <v>       0.00231481 </v>
   <v>       0.00231481 </v>
   <v>       0.00231481 </v>
   <v>       0.00231481 </v>
   <v>       0.00231481 </v>
   <v>       0.00115741 </v>
   <v>       0.00231481 </v>
   <v>       0.00462963 </v>
   <v>       0.00462963 </v>
   <v>       0.00462963 </v>
   <v>       0.00462963 </v>
   <v>       0.00462963 </v>
   <v>       0.00462963 </v>
   <v>       0.00462963 </v>
   <v>       0.00462963 </v>
   <v>       0.00462963 </v>
   <v>       0.00462963 </v>
   <v>       0.00462963 </v>
   <v>       0.00231481 </v>
   <v>       0.00231481 </v>
   <v>       0.00462963 </v>
   <v>       0.00462963 </v>
   <v>       0.00462963 </v>
   <v>       0.00462963 </v>
   <v>       0.00462963 </v>
   <v>       0.00462963 </v>
   <v>       0.00462963 </v>
   <v>       0.00462963 </v>
   <v>       0.00462963 </v>
   <v>       0.00462963 </v>
   <v>       0.00462963 </v>
   <v>       0.00231481 </v>
   <v>       0.00231481 </v>
   <v>       0.00462963 </v>
   <v>       0.00462963 </v>
   <v>       0.00462963 </v>
   <v>       0.00462963 </v>
   <v>       0.00462963 </v>
   <v>       0.00462963 </v>
   <v>       0.00462963 </v>
   <v>       0.00462963 </v>
   <v>       0.00462963 </v>
   <v>       0.00462963 </v>
   <v>       0.00462963 </v>
   <v>       0.00231481 </v>
   <v>       0.00231481 </v>
   <v>       0.00462963 </v>
   <v>       0.00462963 </v>
   <v>       0.00462963 </v>
   <v>       0.00462963 </v>
   <v>       0.00462963 </v>
   <v>       0.00462963 </v>
   <v>       0.00462963 </v>
   <v>       0.00462963 </v>
   <v>       0.00462963 </v>
   <v>       0.00462963 </v>
   <v>       0.00462963 </v>
   <v>       0.00231481 </v>
   <v>       0.00231481 </v>
   <v>       0.00462963 </v>
   <v>       0.00462963 </v>
   <v>       0.00462963 </v>
   <v>       0.00462963 </v>
   <v>       0.00462963 </v>
   <v>       0.00462963 </v>
   <v>       0.00462963 </v>
   <v>       0.00462963 </v>
   <v>       0.00462963 </v>
   <v>       0.00462963 </v>
   <v>       0.00462963 </v>
   <v>       0.00231481 </v>
   <v>       0.00231481 </v>
   <v>       0.00462963 </v>
   <v>       0.00462963 </v>
   <v>       0.00462963 </v>
   <v>       0.00462963 </v>
   <v>       0.00462963 </v>
   <v>       0.00462963 </v>
   <v>       0.00462963 </v>
   <v>       0.00462963 </v>
   <v>       0.00462963 </v>
   <v>       0.00462963 </v>
   <v>       0.00462963 </v>
   <v>       0.00231481 </v>
   <v>       0.00231481 </v>
   <v>       0.00462963 </v>
   <v>       0.00462963 </v>
   <v>       0.00462963 </v>
   <v>       0.00462963 </v>
   <v>       0.00462963 </v>
   <v>       0.00462963 </v>
   <v>       0.00462963 </v>
   <v>       0.00462963 </v>
   <v>       0.00462963 </v>
   <v>       0.00462963 </v>
   <v>       0.00462963 </v>
   <v>       0.00231481 </v>
   <v>       0.00231481 </v>
   <v>       0.00462963 </v>
   <v>       0.00462963 </v>
   <v>       0.00462963 </v>
   <v>       0.00462963 </v>
   <v>       0.00462963 </v>
   <v>       0.00462963 </v>
   <v>       0.00462963 </v>
   <v>       0.00462963 </v>
   <v>       0.00462963 </v>
   <v>       0.00462963 </v>
   <v>       0.00462963 </v>
   <v>       0.00231481 </v>
   <v>       0.00231481 </v>
   <v>       0.00462963 </v>
   <v>       0.00462963 </v>
   <v>       0.00462963 </v>
   <v>       0.00462963 </v>
   <v>       0.00462963 </v>
   <v>       0.00462963 </v>
   <v>       0.00462963 </v>
   <v>       0.00462963 </v>
   <v>       0.00462963 </v>
   <v>       0.00462963 </v>
   <v>       0.00462963 </v>
   <v>       0.00231481 </v>
   <v>       0.00231481 </v>
   <v>       0.00462963 </v>
   <v>       0.00462963 </v>
   <v>       0.00462963 </v>
   <v>       0.00462963 </v>
   <v>       0.00462963 </v>
   <v>       0.00462963 </v>
   <v>       0.00462963 </v>
   <v>       0.00462963 </v>
   <v>       0.00462963 </v>
   <v>       0.00462963 </v>
   <v>       0.00462963 </v>
   <v>       0.00231481 </v>
   <v>       0.00231481 </v>
   <v>       0.00462963 </v>
   <v>       0.00462963 </v>
   <v>       0.00462963 </v>
   <v>       0.00462963 </v>
   <v>       0.00462963 </v>
   <v>       0.00462963 </v>
   <v>       0.00462963 </v>
   <v>       0.00462963 </v>
   <v>       0.00462963 </v>
   <v>       0.00462963 </v>
   <v>       0.00462963 </v>
   <v>       0.00231481 </v>
   <v>       0.00231481 </v>
   <v>       0.00462963 </v>
   <v>       0.00462963 </v>
   <v>       0.00462963 </v>
   <v>       0.00462963 </v>
   <v>       0.00462963 </v>
   <v>       0.00462963 </v>
   <v>       0.00462963 </v>
   <v>       0.00462963 </v>
   <v>       0.00462963 </v>
   <v>       0.00462963 </v>
   <v>       0.00462963 </v>
   <v>       0.00231481 </v>
   <v>       0.00231481 </v>
   <v>       0.00462963 </v>
   <v>       0.00462963 </v>
   <v>       0.00462963 </v>
   <v>       0.00462963 </v>
   <v>       0.00462963 </v>
   <v>       0.00462963 </v>
   <v>       0.00462963 </v>
   <v>       0.00462963 </v>
   <v>       0.00462963 </v>
   <v>       0.00462963 </v>
   <v>       0.00462963 </v>
   <v>       0.00231481 </v>
   <v>       0.00231481 </v>
   <v>       0.00462963 </v>
   <v>       0.00462963 </v>
   <v>       0.00462963 </v>
   <v>       0.00462963 </v>
   <v>       0.00462963 </v>
   <v>       0.00462963 </v>
   <v>       0.00462963 </v>
   <v>       0.00462963 </v>
   <v>       0.00462963 </v>
   <v>       0.00462963 </v>
   <v>       0.00462963 </v>
   <v>       0.00231481 </v>
   <v>       0.00231481 </v>
   <v>       0.00462963 </v>
   <v>       0.00462963 </v>
   <v>       0.00462963 </v>
   <v>       0.00462963 </v>
   <v>       0.00462963 </v>
   <v>       0.00462963 </v>
   <v>       0.00462963 </v>
   <v>       0.00462963 </v>
   <v>       0.00462963 </v>
   <v>       0.00462963 </v>
   <v>       0.00462963 </v>
   <v>       0.00231481 </v>
   <v>       0.00231481 </v>
   <v>       0.00462963 </v>
   <v>       0.00462963 </v>
   <v>       0.00462963 </v>
   <v>       0.00462963 </v>
   <v>       0.00462963 </v>
   <v>       0.00462963 </v>
   <v>       0.00462963 </v>
   <v>       0.00462963 </v>
   <v>       0.00462963 </v>
   <v>       0.00462963 </v>
   <v>       0.00462963 </v>
   <v>       0.00231481 </v>
   <v>       0.00231481 </v>
   <v>       0.00462963 </v>
   <v>       0.00462963 </v>
   <v>       0.00462963 </v>
   <v>       0.00462963 </v>
   <v>       0.00462963 </v>
   <v>       0.00462963 </v>
   <v>       0.00462963 </v>
   <v>       0.00462963 </v>
   <v>       0.00462963 </v>
   <v>       0.00462963 </v>
   <v>       0.00462963 </v>
   <v>       0.00231481 </v>
   <v>       0.00115741 </v>
   <v>       0.00231481 </v>
   <v>       0.00231481 </v>
   <v>       0.00231481 </v>
   <v>       0.00231481 </v>
   <v>       0.00231481 </v>
   <v>       0.00231481 </v>
   <v>       0.00231481 </v>
   <v>       0.00231481 </v>
   <v>       0.00231481 </v>
   <v>       0.00231481 </v>
   <v>       0.00231481 </v>
   <v>       0.00115741 </v>
  </varray>
 </kpoints>
 <parameters>
  <separator name="general" >
   <i type="string" name="SYSTEM">gr</i>
   <i type="logical" name="LCOMPAT"> F  </i>
  </separator>
  <separator name="electronic" >
   <i type="string" name="PREC">accura</i>
   <i name="ENMAX">   2000.00000000</i>
   <i name="ENAUG">    644.87300000</i>
   <i name="EDIFF">      0.00000000</i>
   <i type="int" name="IALGO">    68</i>
   <i type="int" name="IWAVPR">    11</i>
   <i type="int" name="NBANDS">    12</i>
   <i name="NELECT">     16.00000000</i>
   <i type="int" name="TURBO">     0</i>
   <i type="int" name="IRESTART">     0</i>
   <i type="int" name="NREBOOT">     0</i>
   <i type="int" name="NMIN">     0</i>
   <i name="EREF">      0.00000000</i>
   <separator name="electronic smearing" >
    <i type="int" name="ISMEAR">     0</i>
    <i name="SIGMA">      0.05000000</i>
    <i name="KSPACING">      0.50000000</i>
    <i type="logical" name="KGAMMA"> T  </i>
   </separator>
   <separator name="electronic projectors" >
    <i type="logical" name="LREAL"> F  </i>
    <v name="ROPT">      0.00000000</v>
    <i type="int" name="LMAXPAW">  -100</i>
    <i type="int" name="LMAXMIX">     2</i>
    <i type="logical" name="NLSPLINE"> F  </i>
   </separator>
   <separator name="electronic startup" >
    <i type="int" name="ISTART">     0</i>
    <i type="int" name="ICHARG">     2</i>
    <i type="int" name="INIWAV">     1</i>
   </separator>
   <separator name="electronic spin" >
    <i type="int" name="ISPIN">     1</i>
    <i type="logical" name="LNONCOLLINEAR"> F  </i>
    <v name="MAGMOM">      1.00000000      1.00000000      1.00000000      1.00000000</v>
    <i name="NUPDOWN">     -1.00000000</i>
    <i type="logical" name="LSORBIT"> F  </i>
    <v name="SAXIS">      0.00000000      0.00000000      1.00000000</v>
    <i type="logical" name="LSPIRAL"> F  </i>
    <v name="QSPIRAL">      0.00000000      0.00000000      0.00000000</v>
    <i type="logical" name="LZEROZ"> F  </i>
   </separator>
   <separator name="electronic exchange-correlation" >
    <i type="logical" name="LASPH"> F  </i>
    <i type="logical" name="LMETAGGA"> F  </i>
   </separator>
   <separator name="electronic convergence" >
    <i type="int" name="NELM">   100</i>
    <i type="int" name="NELMDL">    -3</i>
    <i type="int" name="NELMIN">     5</i>
    <i name="ENINI">   2000.00000000</i>
    <separator name="electronic convergence detail" >
     <i type="logical" name="LDIAG"> T  </i>
     <i type="logical" name="LSUBROT"> F  </i>
     <i name="WEIMIN">      0.00100000</i>
     <i name="EBREAK">      0.00000000</i>
     <i name="DEPER">      0.30000000</i>
     <i type="int" name="NRMM">     4</i>
     <i name="TIME">      0.40000000</i>
    </separator>
   </separator>
   <separator name="electronic mixer" >
    <i name="AMIX">      0.40000000</i>
    <i name="BMIX">      1.00000000</i>
    <i name="AMIN">      0.10000000</i>
    <i name="AMIX_MAG">      1.60000000</i>
    <i name="BMIX_MAG">      1.00000000</i>
    <separator name="electronic mixer details" >
     <i type="int" name="IMIX">     4</i>
     <i type="int" name="MAXMIX">   -45</i>
     <i name="WC">    100.00000000</i>
     <i type="int" name="INIMIX">     1</i>
     <i type="int" name="MIXPRE">     1</i>
     <i type="int" name="MREMOVE">     5</i>
    </separator>
   </separator>
   <separator name="electronic dipolcorrection" >
    <i type="logical" name="LDIPOL"> F  </i>
    <i type="logical" name="LMONO"> F  </i>
    <i type="int" name="IDIPOL">     0</i>
    <i name="EPSILON">      1.00000000</i>
    <v name="DIPOL">   -100.00000000   -100.00000000   -100.00000000</v>
    <i name="EFIELD">      0.00000000</i>
   </separator>
  </separator>
  <separator name="grids" >
   <i type="int" name="NGX">    64</i>
   <i type="int" name="NGY">    36</i>
   <i type="int" name="NGZ">   294</i>
   <i type="int" name="NGXF">   128</i>
   <i type="int" name="NGYF">    72</i>
   <i type="int" name="NGZF">   588</i>
   <i type="logical" name="ADDGRID"> F  </i>
  </separator>
  <separator name="ionic" >
   <i type="int" name="NSW">   400</i>
   <i type="int" name="IBRION">     1</i>
   <i type="int" name="ISIF">     2</i>
   <i name="PSTRESS">      0.00000000</i>
   <i name="EDIFFG">     -0.00000100</i>
   <i type="int" name="NFREE">     0</i>
   <i name="POTIM">      0.50000000</i>
   <i name="SMASS">     -3.00000000</i>
   <i name="SCALEE">      1.00000000</i>
  </separator>
  <separator name="ionic md" >
   <i name="TEBEG">      0.00010000</i>
   <i name="TEEND">      0.00010000</i>
   <i type="int" name="NBLOCK">     1</i>
   <i type="int" name="KBLOCK">   400</i>
   <i type="int" name="NPACO">   256</i>
   <i name="APACO">     16.00000000</i>
  </separator>
  <separator name="symmetry" >
   <i type="int" name="ISYM">     2</i>
   <i name="SYMPREC">      0.00001000</i>
  </separator>
  <separator name="dos" >
   <i type="logical" name="LORBIT"> F  </i>
   <v name="RWIGS">     -1.00000000</v>
   <i type="int" name="NEDOS">   301</i>
   <i name="EMIN">     10.00000000</i>
   <i name="EMAX">    -10.00000000</i>
   <i name="EFERMI">      0.00000000</i>
  </separator>
  <separator name="writing" >
   <i type="int" name="NWRITE">     2</i>
   <i type="logical" name="LWAVE"> F  </i>
   <i type="logical" name="LCHARG"> F  </i>
   <i type="logical" name="LPARD"> F  </i>
   <i type="logical" name="LVTOT"> F  </i>
   <i type="logical" name="LVHAR"> F  </i>
   <i type="logical" name="LELF"> F  </i>
   <i type="logical" name="LOPTICS"> F  </i>
   <v name="STM">      0.00000000      0.00000000      0.00000000      0.00000000      0.00000000      0.00000000      0.00000000</v>
  </separator>
  <separator name="performance" >
   <i type="int" name="NPAR">     4</i>
   <i type="int" name="NSIM">     4</i>
   <i type="int" name="NBLK">    -1</i>
   <i type="logical" name="LPLANE"> T  </i>
   <i type="logical" name="LSCALAPACK"> F  </i>
   <i type="logical" name="LSCAAWARE"> F  </i>
   <i type="logical" name="LSCALU"> F  </i>
   <i type="logical" name="LASYNC"> F  </i>
   <i type="logical" name="LORBITALREAL"> F  </i>
  </separator>
  <separator name="miscellaneous" >
   <i type="int" name="IDIOT">     3</i>
   <i type="logical" name="LMUSIC"> F  </i>
   <v name="POMASS">     12.01100000</v>
   <v name="DARWINR">      0.00000000</v>
   <v name="DARWINV">      1.00000000</v>
   <i type="logical" name="LCORR"> T  </i>
  </separator>
  <i type="logical" name="GGA_COMPAT"> T  </i>
  <i type="logical" name="LBERRY"> F  </i>
  <i type="int" name="ICORELEVEL">     0</i>
  <i type="logical" name="LDAU"> F  </i>
  <i type="int" name="I_CONSTRAINED_M">     0</i>
  <separator name="electronic exchange-correlation" >
   <i type="string" name="GGA">--</i>
   <i type="int" name="VOSKOWN">     0</i>
   <i type="logical" name="LHFCALC"> F  </i>
   <i type="string" name="PRECFOCK"></i>
   <i type="logical" name="LSYMGRAD"> F  </i>
   <i type="logical" name="LHFONE"> F  </i>
   <i type="logical" name="LRHFCALC"> F  </i>
   <i type="logical" name="LTHOMAS"> F  </i>
   <i type="logical" name="LMODELHF"> F  </i>
   <i name="ENCUT4O">     -1.00000000</i>
   <i type="int" name="EXXOEP">     0</i>
   <i type="int" name="FOURORBIT">     0</i>
   <i name="AEXX">      0.00000000</i>
   <i name="HFALPHA">      0.00000000</i>
   <i name="MCALPHA">      0.00000000</i>
   <i name="ALDAX">      1.00000000</i>
   <i name="AGGAX">      1.00000000</i>
   <i name="ALDAC">      1.00000000</i>
   <i name="AGGAC">      1.00000000</i>
   <i type="int" name="NKREDX">     1</i>
   <i type="int" name="NKREDY">     1</i>
   <i type="int" name="NKREDZ">     1</i>
   <i type="logical" name="SHIFTRED"> F  </i>
   <i type="logical" name="ODDONLY"> F  </i>
   <i type="logical" name="EVENONLY"> F  </i>
   <i type="int" name="LMAXFOCK">     0</i>
   <i type="int" name="NMAXFOCKAE">     0</i>
   <i type="logical" name="LFOCKAEDFT"> F  </i>
   <i name="HFSCREEN">      0.00000000</i>
   <i name="HFSCREENC">      0.00000000</i>
   <i type="int" name="NBANDSGWLOW">     0</i>
  </separator>
  <separator name="vdW DFT" >
   <i type="logical" name="LUSE_VDW"> F  </i>
   <i name="Zab_VDW">     -0.84910000</i>
   <i name="PARAM1">      0.12340000</i>
   <i name="PARAM2">      1.00000000</i>
   <i name="PARAM3">      0.00000000</i>
  </separator>
  <separator name="model GW" >
   <i type="int" name="MODEL_GW">     0</i>
   <i name="MODEL_EPS0">     31.62568521</i>
   <i name="MODEL_ALPHA">      1.00000000</i>
  </separator>
  <separator name="linear response parameters" >
   <i type="logical" name="LEPSILON"> F  </i>
   <i type="logical" name="LRPA"> F  </i>
   <i type="logical" name="LNABLA"> F  </i>
   <i type="logical" name="LVEL"> F  </i>
   <i type="int" name="KINTER">     0</i>
   <i name="CSHIFT">      0.10000000</i>
   <i name="OMEGAMAX">     -1.00000000</i>
   <i name="DEG_THRESHOLD">      0.00200000</i>
  </separator>
  <separator name="orbital magnetization" >
   <i type="logical" name="NUCIND"> F  </i>
   <v name="MAGPOS">      0.00000000      0.00000000      0.00000000</v>
   <i type="logical" name="LNICSALL"> T  </i>
   <i type="logical" name="ORBITALMAG"> F  </i>
   <i type="logical" name="LMAGBLOCH"> F  </i>
   <i type="logical" name="LCHIMAG"> F  </i>
   <i type="logical" name="LGAUGE"> T  </i>
   <i type="int" name="MAGATOM">     0</i>
   <v name="MAGDIPOL">      0.00000000      0.00000000      0.00000000</v>
   <v name="AVECCONST">      0.00000000      0.00000000      0.00000000</v>
  </separator>
  <separator name="response functions" >
   <i type="logical" name="LADDER"> F  </i>
   <i type="logical" name="LFXC"> F  </i>
   <i type="logical" name="LHARTREE"> T  </i>
   <i type="int" name="IBSE">     0</i>
   <i type="logical" name="LTCTE"> F  </i>
   <i type="logical" name="LTETE"> F  </i>
   <i type="logical" name="LTRIPLET"> F  </i>
   <i type="logical" name="LFXCEPS"> F  </i>
   <i type="logical" name="LFXHEG"> F  </i>
   <i type="logical" name="L2ORDER"> F  </i>
   <i type="logical" name="LUSEW"> F  </i>
   <i name="ENCUTGW">     -2.00000000</i>
   <i name="ENCUTGWSOFT">     -2.00000000</i>
   <i name="ENCUTLF">     -1.00000000</i>
   <i type="int" name="LMAXMP2">    -1</i>
   <i name="SCISSOR">      0.00000000</i>
   <i type="int" name="NOMEGA">     0</i>
   <i type="int" name="NOMEGAR">     0</i>
   <i type="int" name="NBANDSGW">    -1</i>
   <i type="int" name="NBANDSO">    -1</i>
   <i type="int" name="NBANDSV">    -1</i>
   <i type="int" name="NELM">   100</i>
   <i type="int" name="DIM">     3</i>
   <i type="int" name="ANTIRES">     0</i>
   <i name="OMEGAMAX">    -30.00000000</i>
   <i name="OMEGAMIN">    -30.00000000</i>
   <i name="OMEGATL">   -200.00000000</i>
   <i type="int" name="OMEGAGRID">     0</i>
   <i name="CSHIFT">     -0.10000000</i>
   <i type="logical" name="SELFENERGY"> F  </i>
   <i type="logical" name="LSPECTRAL"> F  </i>
   <i type="logical" name="ODDONLYGW"> F  </i>
   <i type="logical" name="EVENONLYGW"> F  </i>
   <i type="int" name="NKREDLFX">     1</i>
   <i type="int" name="NKREDLFY">     1</i>
   <i type="int" name="NKREDLFZ">     1</i>
   <i type="int" name="MAXMEM">  1800</i>
   <i type="int" name="TELESCOPE">     0</i>
   <i type="int" name="TAUPAR">     1</i>
  </separator>
  <separator name="External order field" >
   <i name="OFIELD_KAPPA">      0.00000000</i>
   <v name="OFIELD_K">      0.00000000      0.00000000      0.00000000</v>
   <i name="OFIELD_Q6_NEAR">      0.00000000</i>
   <i name="OFIELD_Q6_FAR">      0.00000000</i>
   <i name="OFIELD_A">      0.00000000</i>
  </separator>
 </parameters>
 <atominfo>
  <atoms>       4 </atoms>
  <types>       1 </types>
  <array name="atoms" >
   <dimension dim="1">ion</dimension>
   <field type="string">element</field>
   <field type="int">atomtype</field>
   <set>
    <rc><c>C </c><c>   1</c></rc>
    <rc><c>C </c><c>   1</c></rc>
    <rc><c>C </c><c>   1</c></rc>
    <rc><c>C </c><c>   1</c></rc>
   </set>
  </array>
  <array name="atomtypes" >
   <dimension dim="1">type</dimension>
   <field type="int">atomspertype</field>
   <field type="string">element</field>
   <field>mass</field>
   <field>valence</field>
   <field type="string">pseudopotential</field>
   <set>
    <rc><c>   4</c><c>C </c><c>     12.01100000</c><c>      4.00000000</c><c> PAW_PBE C 08Apr2002                    </c></rc>
   </set>
  </array>
 </atominfo>
 <structure name="initialpos" >
  <crystal>
   <varray name="basis" >
    <v>       4.27368227       0.00000000       0.00000000 </v>
    <v>       0.00000000       2.46742264       0.00000000 </v>
    <v>       0.00000000       0.00000000      19.99414828 </v>
   </varray>
   <i name="volume">    210.83790140 </i>
   <varray name="rec_basis" >
    <v>       0.23399025       0.00000000       0.00000000 </v>
    <v>       0.00000000       0.40528120       0.00000000 </v>
    <v>       0.00000000       0.00000000       0.05001463 </v>
   </varray>
  </crystal>
  <varray name="positions" >
   <v>       0.00013158       0.00000000       0.00000000 </v>
   <v>       0.16653509       0.50000000       0.00000000 </v>
   <v>       0.50013158       0.50000000       0.00000000 </v>
   <v>       0.66653509       0.00000000       0.00000000 </v>
  </varray>
 </structure>
 <calculation>
  <scstep>
   <time name="dav">  300.03  300.49</time>
   <time name="total">  302.55  303.04</time>
   <energy>
    <i name="alphaZ">      6.18334092 </i>
    <i name="ewald">   2584.88005359 </i>
    <i name="hartreedc">  -3010.31978682 </i>
    <i name="XCdc">     55.09366265 </i>
    <i name="pawpsdc">    151.32577238 </i>
    <i name="pawaedc">   -155.92769107 </i>
    <i name="eentropy">     -0.00162224 </i>
    <i name="bandstr">    -29.23983907 </i>
    <i name="atom">    588.62352690 </i>
    <i name="e_fr_energy">    190.61741725 </i>
    <i name="e_wo_entrp">    190.61903948 </i>
    <i name="e_0_energy">    190.61822836 </i>
   </energy>
  </scstep>
  <scstep>
   <time name="dav">  454.12  454.36</time>
   <time name="total">  454.13  454.38</time>
   <energy>
    <i name="e_fr_energy">     -8.96286002 </i>
    <i name="e_wo_entrp">     -8.96209351 </i>
    <i name="e_0_energy">     -8.96247677 </i>
   </energy>
  </scstep>
  <scstep>
   <time name="dav">  349.73  349.95</time>
   <time name="total">  381.45  381.70</time>
   <energy>
    <i name="e_fr_energy">    -38.36100105 </i>
    <i name="e_wo_entrp">    -38.36099358 </i>
    <i name="e_0_energy">    -38.36099731 </i>
   </energy>
  </scstep>
  <scstep>
   <time name="diag">   81.68   81.70</time>
   <time name="diis">  347.19  347.28</time>
   <time name="orth">    3.21    3.21</time>
   <time name="total">  465.66  465.92</time>
   <energy>
    <i name="e_fr_energy">    -37.69759390 </i>
    <i name="e_wo_entrp">    -37.69759389 </i>
    <i name="e_0_energy">    -37.69759389 </i>
   </energy>
  </scstep>
  <scstep>
   <time name="diag">   81.62   81.64</time>
   <time name="diis">  344.08  344.15</time>
   <time name="orth">    3.07    3.07</time>
   <time name="total">  462.30  462.42</time>
   <energy>
    <i name="e_fr_energy">    -36.92237933 </i>
    <i name="e_wo_entrp">    -36.92223864 </i>
    <i name="e_0_energy">    -36.92230899 </i>
   </energy>
  </scstep>
  <scstep>
   <time name="diag">   81.60   81.62</time>
   <time name="diis">  376.75  376.85</time>
   <time name="orth">    3.07    3.07</time>
   <time name="total">  495.40  495.53</time>
   <energy>
    <i name="e_fr_energy">    -36.92339518 </i>
    <i name="e_wo_entrp">    -36.92338951 </i>
    <i name="e_0_energy">    -36.92339234 </i>
   </energy>
  </scstep>
  <scstep>
   <time name="diag">   81.60   81.62</time>
   <time name="diis">  344.72  344.80</time>
   <time name="orth">    3.10    3.10</time>
   <time name="total">  463.41  463.58</time>
   <energy>
    <i name="e_fr_energy">    -36.92736344 </i>
    <i name="e_wo_entrp">    -36.92723580 </i>
    <i name="e_0_energy">    -36.92729962 </i>
   </energy>
  </scstep>
  <scstep>
   <time name="diag">   81.61   81.64</time>
   <time name="diis">  344.48  344.56</time>
   <time name="orth">    3.09    3.09</time>
   <time name="total">  463.24  463.37</time>
   <energy>
    <i name="e_fr_energy">    -36.92229240 </i>
    <i name="e_wo_entrp">    -36.92216471 </i>
    <i name="e_0_energy">    -36.92222855 </i>
   </energy>
  </scstep>
  <scstep>
   <time name="diag">   81.62   81.64</time>
   <time name="diis">  333.30  333.56</time>
   <time name="orth">    3.07    3.07</time>
   <time name="total">  451.97  452.31</time>
   <energy>
    <i name="e_fr_energy">    -36.92216901 </i>
    <i name="e_wo_entrp">    -36.92204126 </i>
    <i name="e_0_energy">    -36.92210513 </i>
   </energy>
  </scstep>
  <scstep>
   <time name="diag">   81.69   81.73</time>
   <time name="diis">  334.37  334.45</time>
   <time name="orth">    3.09    3.09</time>
   <time name="total">  452.76  452.89</time>
   <energy>
    <i name="e_fr_energy">    -36.92192652 </i>
    <i name="e_wo_entrp">    -36.92179880 </i>
    <i name="e_0_energy">    -36.92186266 </i>
   </energy>
  </scstep>
  <scstep>
   <time name="diag">   81.62   81.65</time>
   <time name="diis">  335.62  335.94</time>
   <time name="orth">    3.09    3.09</time>
   <time name="total">  454.29  454.69</time>
   <energy>
    <i name="e_fr_energy">    -36.92466796 </i>
    <i name="e_wo_entrp">    -36.92454026 </i>
    <i name="e_0_energy">    -36.92460411 </i>
   </energy>
  </scstep>
  <scstep>
   <time name="diag">   81.60   81.64</time>
   <time name="diis">  334.54  334.61</time>
   <time name="orth">    3.07    3.07</time>
   <time name="total">  453.10  453.24</time>
   <energy>
    <i name="e_fr_energy">    -36.92501475 </i>
    <i name="e_wo_entrp">    -36.92488704 </i>
    <i name="e_0_energy">    -36.92495089 </i>
   </energy>
  </scstep>
  <scstep>
   <time name="diag">   81.64   81.66</time>
   <time name="diis">  338.27  338.39</time>
   <time name="orth">    3.09    3.09</time>
   <time name="total">  456.81  457.09</time>
   <energy>
    <i name="e_fr_energy">    -36.92530993 </i>
    <i name="e_wo_entrp">    -36.92518221 </i>
    <i name="e_0_energy">    -36.92524607 </i>
   </energy>
  </scstep>
  <scstep>
   <time name="diag">   81.60   81.63</time>
   <time name="diis">  338.26  338.51</time>
   <time name="orth">    3.06    3.07</time>
   <time name="total">  456.56  456.88</time>
   <energy>
    <i name="e_fr_energy">    -36.92539108 </i>
    <i name="e_wo_entrp">    -36.92526337 </i>
    <i name="e_0_energy">    -36.92532723 </i>
   </energy>
  </scstep>
  <scstep>
   <time name="diag">   81.56   81.62</time>
   <time name="diis">  342.81  342.89</time>
   <time name="orth">    3.09    3.09</time>
   <time name="total">  461.07  461.46</time>
   <energy>
    <i name="e_fr_energy">    -36.92540472 </i>
    <i name="e_wo_entrp">    -36.92527701 </i>
    <i name="e_0_energy">    -36.92534086 </i>
   </energy>
  </scstep>
  <scstep>
   <time name="diag">   81.61   81.63</time>
   <time name="diis">  340.83  340.89</time>
   <time name="orth">    3.07    3.07</time>
   <time name="total">  459.03  459.12</time>
   <energy>
    <i name="e_fr_energy">    -36.92541623 </i>
    <i name="e_wo_entrp">    -36.92528852 </i>
    <i name="e_0_energy">    -36.92535238 </i>
   </energy>
  </scstep>
  <scstep>
   <time name="diag">   81.67   81.69</time>
   <time name="diis">  346.85  347.10</time>
   <time name="orth">    3.08    3.08</time>
   <time name="total">  464.88  465.26</time>
   <energy>
    <i name="e_fr_energy">    -36.92541873 </i>
    <i name="e_wo_entrp">    -36.92529102 </i>
    <i name="e_0_energy">    -36.92535487 </i>
   </energy>
  </scstep>
  <scstep>
   <time name="diag">   81.66   81.67</time>
   <time name="diis">  334.35  334.41</time>
   <time name="orth">    3.09    3.09</time>
   <time name="total">  452.85  453.23</time>
   <energy>
    <i name="e_fr_energy">    -36.92542146 </i>
    <i name="e_wo_entrp">    -36.92529375 </i>
    <i name="e_0_energy">    -36.92535761 </i>
   </energy>
  </scstep>
  <scstep>
   <time name="diag">   81.68   81.69</time>
   <time name="diis">  341.22  341.47</time>
   <time name="orth">    3.09    3.09</time>
   <time name="total">  459.47  460.00</time>
   <energy>
    <i name="e_fr_energy">    -36.92542162 </i>
    <i name="e_wo_entrp">    -36.92529391 </i>
    <i name="e_0_energy">    -36.92535776 </i>
   </energy>
  </scstep>
  <scstep>
   <time name="diag">   81.61   81.63</time>
   <time name="diis">  296.74  296.80</time>
   <time name="orth">    3.09    3.09</time>
   <time name="total">  415.51  415.61</time>
   <energy>
    <i name="e_fr_energy">    -36.92542172 </i>
    <i name="e_wo_entrp">    -36.92529400 </i>
    <i name="e_0_energy">    -36.92535786 </i>
   </energy>
  </scstep>
  <scstep>
   <time name="diag">   81.38   81.70</time>
   <time name="diis">  220.77  221.87</time>
   <time name="orth">    3.07    3.07</time>
   <time name="total">  338.98  340.60</time>
   <energy>
    <i name="e_fr_energy">    -36.92542172 </i>
    <i name="e_wo_entrp">    -36.92529401 </i>
    <i name="e_0_energy">    -36.92535786 </i>
   </energy>
  </scstep>
  <scstep>
   <time name="diag">   81.49   81.66</time>
   <time name="diis">  215.95  217.60</time>
   <time name="orth">    3.07    3.08</time>
   <time name="total">  334.13  336.26</time>
   <energy>
    <i name="e_fr_energy">    -36.92542172 </i>
    <i name="e_wo_entrp">    -36.92529401 </i>
    <i name="e_0_energy">    -36.92535787 </i>
   </energy>
  </scstep>
  <scstep>
   <time name="diag">   80.95   81.70</time>
   <time name="diis">  210.13  211.68</time>
   <time name="orth">    3.07    3.09</time>
   <time name="total">  296.56  298.90</time>
   <energy>
    <i name="alphaZ">      6.18334092 </i>
    <i name="ewald">   2584.88005359 </i>
    <i name="hartreedc">  -3078.83012662 </i>
    <i name="XCdc">     57.51722395 </i>
    <i name="pawpsdc">    276.96201704 </i>
    <i name="pawaedc">   -282.11034577 </i>
    <i name="eentropy">     -0.00012771 </i>
    <i name="bandstr">   -190.15098402 </i>
    <i name="atom">    588.62352690 </i>
    <i name="e_fr_energy">    -36.92542172 </i>
    <i name="e_wo_entrp">    -36.92529401 </i>
    <i name="e_0_energy">    -36.92535787 </i>
   </energy>
  </scstep>
  <structure>
   <crystal>
    <varray name="basis" >
     <v>       4.27368227       0.00000000       0.00000000 </v>
     <v>       0.00000000       2.46742264       0.00000000 </v>
     <v>       0.00000000       0.00000000      19.99414828 </v>
    </varray>
    <i name="volume">    210.83790140 </i>
    <varray name="rec_basis" >
     <v>       0.23399025       0.00000000       0.00000000 </v>
     <v>       0.00000000       0.40528120       0.00000000 </v>
     <v>       0.00000000       0.00000000       0.05001463 </v>
    </varray>
   </crystal>
   <varray name="positions" >
    <v>       0.00013158       0.00000000       0.00000000 </v>
    <v>       0.16653509       0.50000000       0.00000000 </v>
    <v>       0.50013158       0.50000000       0.00000000 </v>
    <v>       0.66653509       0.00000000       0.00000000 </v>
   </varray>
  </structure>
  <varray name="forces" >
   <v>      -0.05781008      -0.00000000       0.00000000 </v>
   <v>       0.05781008      -0.00000000      -0.00000000 </v>
   <v>      -0.05781008       0.00000000       0.00000000 </v>
   <v>       0.05781008      -0.00000000      -0.00000000 </v>
  </varray>
  <varray name="stress" >
   <v>      -0.31940906       0.00000000       0.00000000 </v>
   <v>       0.00000000      -0.00664762       0.00000000 </v>
   <v>       0.00000000       0.00000000      -0.01009066 </v>
  </varray>
  <energy>
   <i name="e_fr_energy">    -36.92542172 </i>
   <i name="e_wo_entrp">    -36.92535787 </i>
   <i name="e_0_energy">     -0.00012771 </i>
  </energy>
  <time name="totalsc"> 9999.4810011.58</time>
 </calculation>
 <calculation>
  <scstep>
   <time name="dav">  327.33  328.77</time>
   <time name="total">  361.18  362.91</time>
   <energy>
    <i name="alphaZ">      6.18334092 </i>
    <i name="ewald">   2584.88337857 </i>
    <i name="hartreedc">  -3078.83052377 </i>
    <i name="XCdc">     57.51725125 </i>
    <i name="pawpsdc">    276.96201309 </i>
    <i name="pawaedc">   -282.11034181 </i>
    <i name="eentropy">     -0.00008410 </i>
    <i name="bandstr">   -190.15301997 </i>
    <i name="atom">    588.62352690 </i>
    <i name="e_fr_energy">    -36.92445891 </i>
    <i name="e_wo_entrp">    -36.92437481 </i>
    <i name="e_0_energy">    -36.92441686 </i>
   </energy>
  </scstep>
  <scstep>
   <time name="diag">   81.22   81.74</time>
   <time name="diis">  329.77  333.11</time>
   <time name="orth">    3.07    3.09</time>
   <time name="total">  447.82  452.08</time>
   <energy>
    <i name="e_fr_energy">    -36.92449959 </i>
    <i name="e_wo_entrp">    -36.92441236 </i>
    <i name="e_0_energy">    -36.92445598 </i>
   </energy>
  </scstep>
  <scstep>
   <time name="diag">   80.91   81.73</time>
   <time name="diis">  335.90  337.98</time>
   <time name="orth">    3.07    3.07</time>
   <time name="total">  453.71  456.83</time>
   <energy>
    <i name="e_fr_energy">    -36.92445392 </i>
    <i name="e_wo_entrp">    -36.92436124 </i>
    <i name="e_0_energy">    -36.92440758 </i>
   </energy>
  </scstep>
  <scstep>
   <time name="diag">   81.23   81.80</time>
   <time name="diis">  343.94  344.82</time>
   <time name="orth">    3.07    3.07</time>
   <time name="total">  462.00  463.55</time>
   <energy>
    <i name="e_fr_energy">    -36.92444953 </i>
    <i name="e_wo_entrp">    -36.92435817 </i>
    <i name="e_0_energy">    -36.92440385 </i>
   </energy>
  </scstep>
  <scstep>
   <time name="diag">   81.56   81.76</time>
   <time name="diis">  353.82  354.55</time>
   <time name="orth">    3.06    3.09</time>
   <time name="total">  472.40  473.46</time>
   <energy>
    <i name="e_fr_energy">    -36.92444968 </i>
    <i name="e_wo_entrp">    -36.92435847 </i>
    <i name="e_0_energy">    -36.92440408 </i>
   </energy>
  </scstep>
  <scstep>
   <time name="diag">   81.27   81.73</time>
   <time name="diis">  345.01  345.50</time>
   <time name="orth">    3.08    3.09</time>
   <time name="total">  462.62  470.48</time>
   <energy>
    <i name="e_fr_energy">    -36.92444960 </i>
    <i name="e_wo_entrp">    -36.92435822 </i>
    <i name="e_0_energy">    -36.92440391 </i>
   </energy>
  </scstep>
  <scstep>
   <time name="diag">   81.59   81.70</time>
   <time name="diis">  344.62  344.98</time>
   <time name="orth">    3.08    3.09</time>
   <time name="total">  462.45  463.38</time>
   <energy>
    <i name="e_fr_energy">    -36.92444960 </i>
    <i name="e_wo_entrp">    -36.92435821 </i>
    <i name="e_0_energy">    -36.92440390 </i>
   </energy>
  </scstep>
  <scstep>
   <time name="diag">   81.49   81.70</time>
   <time name="diis">  311.86  314.50</time>
   <time name="orth">    3.12    3.13</time>
   <time name="total">  430.25  433.37</time>
   <energy>
    <i name="e_fr_energy">    -36.92444960 </i>
    <i name="e_wo_entrp">    -36.92435821 </i>
    <i name="e_0_energy">    -36.92440391 </i>
   </energy>
  </scstep>
  <scstep>
   <time name="diag">   81.23   81.71</time>
   <time name="diis">  227.95  228.49</time>
   <time name="orth">    3.08    3.09</time>
   <time name="total">  345.82  346.95</time>
   <energy>
    <i name="e_fr_energy">    -36.92444960 </i>
    <i name="e_wo_entrp">    -36.92435822 </i>
    <i name="e_0_energy">    -36.92440391 </i>
   </energy>
  </scstep>
  <scstep>
   <time name="diag">   81.46   81.67</time>
   <time name="diis">  225.36  226.02</time>
   <time name="orth">    3.08    3.09</time>
   <time name="total">  343.86  345.97</time>
   <energy>
    <i name="e_fr_energy">    -36.92444960 </i>
    <i name="e_wo_entrp">    -36.92435822 </i>
    <i name="e_0_energy">    -36.92440391 </i>
   </energy>
  </scstep>
  <scstep>
   <time name="diag">   81.11   81.75</time>
   <time name="diis">  214.82  216.17</time>
   <time name="orth">    3.07    3.09</time>
   <time name="total">  301.45  303.48</time>
   <energy>
    <i name="alphaZ">      6.18334092 </i>
    <i name="ewald">   2584.88337857 </i>
    <i name="hartreedc">  -3078.83269653 </i>
    <i name="XCdc">     57.51735498 </i>
    <i name="pawpsdc">    276.96842098 </i>
    <i name="pawaedc">   -282.11678515 </i>
    <i name="eentropy">     -0.00009138 </i>
    <i name="bandstr">   -190.15089889 </i>
    <i name="atom">    588.62352690 </i>
    <i name="e_fr_energy">    -36.92444960 </i>
    <i name="e_wo_entrp">    -36.92435822 </i>
    <i name="e_0_energy">    -36.92440391 </i>
   </energy>
  </scstep>
  <structure>
   <crystal>
    <varray name="basis" >
     <v>       4.27368227       0.00000000       0.00000000 </v>
     <v>       0.00000000       2.46742264       0.00000000 </v>
     <v>       0.00000000       0.00000000      19.99414828 </v>
    </varray>
    <i name="volume">    210.83790140 </i>
    <varray name="rec_basis" >
     <v>       0.23399025       0.00000000       0.00000000 </v>
     <v>       0.00000000       0.40528120       0.00000000 </v>
     <v>       0.00000000       0.00000000       0.05001463 </v>
    </varray>
   </crystal>
   <varray name="positions" >
    <v>      -0.00052100      -0.00000000       0.00000000 </v>
    <v>       0.16718767       0.50000000      -0.00000000 </v>
    <v>       0.49947900       0.50000000       0.00000000 </v>
    <v>       0.66718767      -0.00000000      -0.00000000 </v>
   </varray>
  </structure>
  <varray name="forces" >
   <v>       0.23339354      -0.00000000       0.00000000 </v>
   <v>      -0.23339354       0.00000000      -0.00000000 </v>
   <v>       0.23339354      -0.00000000       0.00000000 </v>
   <v>      -0.23339354       0.00000000      -0.00000000 </v>
  </varray>
  <varray name="stress" >
   <v>       0.54064935       0.00000000       0.00000000 </v>
   <v>       0.00000000      -0.82502613       0.00000000 </v>
   <v>       0.00000000       0.00000000      -0.01004730 </v>
  </varray>
  <energy>
   <i name="e_fr_energy">    -36.92444960 </i>
   <i name="e_wo_entrp">    -36.92440391 </i>
   <i name="e_0_energy">     -0.00009138 </i>
  </energy>
  <time name="totalsc"> 4647.10 4676.68</time>
 </calculation>
 <calculation>
  <scstep>
   <time name="dav">  308.75  311.18</time>
   <time name="total">  342.69  346.03</time>
   <energy>
    <i name="alphaZ">      6.18334092 </i>
    <i name="ewald">   2584.87983154 </i>
    <i name="hartreedc">  -3078.83139882 </i>
    <i name="XCdc">     57.51726117 </i>
    <i name="pawpsdc">    276.96842183 </i>
    <i name="pawaedc">   -282.11678599 </i>
    <i name="eentropy">     -0.00013022 </i>
    <i name="bandstr">   -190.14956172 </i>
    <i name="atom">    588.62352690 </i>
    <i name="e_fr_energy">    -36.92549438 </i>
    <i name="e_wo_entrp">    -36.92536417 </i>
    <i name="e_0_energy">    -36.92542927 </i>
   </energy>
  </scstep>
  <scstep>
   <time name="diag">   81.54   81.75</time>
   <time name="diis">  330.95  333.06</time>
   <time name="orth">    3.07    3.09</time>
   <time name="total">  449.32  455.33</time>
   <energy>
    <i name="e_fr_energy">    -36.92551875 </i>
    <i name="e_wo_entrp">    -36.92538829 </i>
    <i name="e_0_energy">    -36.92545352 </i>
   </energy>
  </scstep>
  <scstep>
   <time name="diag">   81.34   81.76</time>
   <time name="diis">  337.25  337.94</time>
   <time name="orth">    3.09    3.14</time>
   <time name="total">  454.75  456.00</time>
   <energy>
    <i name="e_fr_energy">    -36.92548890 </i>
    <i name="e_wo_entrp">    -36.92535831 </i>
    <i name="e_0_energy">    -36.92542360 </i>
   </energy>
  </scstep>
  <scstep>
   <time name="diag">   81.60   81.77</time>
   <time name="diis">  343.58  345.68</time>
   <time name="orth">    3.08    3.09</time>
   <time name="total">  461.94  464.66</time>
   <energy>
    <i name="e_fr_energy">    -36.92548629 </i>
    <i name="e_wo_entrp">    -36.92535569 </i>
    <i name="e_0_energy">    -36.92542099 </i>
   </energy>
  </scstep>
  <scstep>
   <time name="diag">   81.42   81.70</time>
   <time name="diis">  350.92  353.56</time>
   <time name="orth">    3.07    3.07</time>
   <time name="total">  468.82  472.12</time>
   <energy>
    <i name="e_fr_energy">    -36.92548637 </i>
    <i name="e_wo_entrp">    -36.92535577 </i>
    <i name="e_0_energy">    -36.92542107 </i>
   </energy>
  </scstep>
  <scstep>
   <time name="diag">   81.15   81.71</time>
   <time name="diis">  344.21  347.19</time>
   <time name="orth">    3.07    3.07</time>
   <time name="total">  461.39  465.35</time>
   <energy>
    <i name="e_fr_energy">    -36.92548632 </i>
    <i name="e_wo_entrp">    -36.92535572 </i>
    <i name="e_0_energy">    -36.92542102 </i>
   </energy>
  </scstep>
  <scstep>
   <time name="diag">   81.61   81.74</time>
   <time name="diis">  343.83  344.70</time>
   <time name="orth">    3.07    3.09</time>
   <time name="total">  462.08  463.46</time>
   <energy>
    <i name="e_fr_energy">    -36.92548632 </i>
    <i name="e_wo_entrp">    -36.92535572 </i>
    <i name="e_0_energy">    -36.92542102 </i>
   </energy>
  </scstep>
  <scstep>
   <time name="diag">   80.95   81.71</time>
   <time name="diis">  279.06  281.12</time>
   <time name="orth">    3.09    3.09</time>
   <time name="total">  365.45  368.52</time>
   <energy>
    <i name="alphaZ">      6.18334092 </i>
    <i name="ewald">   2584.87983154 </i>
    <i name="hartreedc">  -3078.82993019 </i>
    <i name="XCdc">     57.51721472 </i>
    <i name="pawpsdc">    276.96159072 </i>
    <i name="pawaedc">   -282.10991713 </i>
    <i name="eentropy">     -0.00013060 </i>
    <i name="bandstr">   -190.15101321 </i>
    <i name="atom">    588.62352690 </i>
    <i name="e_fr_energy">    -36.92548632 </i>
    <i name="e_wo_entrp">    -36.92535572 </i>
    <i name="e_0_energy">    -36.92542102 </i>
   </energy>
  </scstep>
  <structure>
   <crystal>
    <varray name="basis" >
     <v>       4.27368227       0.00000000       0.00000000 </v>
     <v>       0.00000000       2.46742264       0.00000000 </v>
     <v>       0.00000000       0.00000000      19.99414828 </v>
    </varray>
    <i name="volume">    210.83790140 </i>
    <varray name="rec_basis" >
     <v>       0.23399025       0.00000000       0.00000000 </v>
     <v>       0.00000000       0.40528120       0.00000000 </v>
     <v>       0.00000000       0.00000000       0.05001463 </v>
    </varray>
   </crystal>
   <varray name="positions" >
    <v>       0.00000203      -0.00000000       0.00000000 </v>
    <v>       0.16666464       0.50000000      -0.00000000 </v>
    <v>       0.50000203       0.50000000       0.00000000 </v>
    <v>       0.66666464      -0.00000000      -0.00000000 </v>
   </varray>
  </structure>
  <varray name="forces" >
   <v>      -0.00052650      -0.00000000       0.00000000 </v>
   <v>       0.00052650       0.00000000       0.00000000 </v>
   <v>      -0.00052650      -0.00000000       0.00000000 </v>
   <v>       0.00052650       0.00000000       0.00000000 </v>
  </varray>
  <varray name="stress" >
   <v>      -0.15835222       0.00000000       0.00000000 </v>
   <v>       0.00000000      -0.17043948       0.00000000 </v>
   <v>       0.00000000       0.00000000      -0.00994628 </v>
  </varray>
  <energy>
   <i name="e_fr_energy">    -36.92548632 </i>
   <i name="e_wo_entrp">    -36.92542102 </i>
   <i name="e_0_energy">     -0.00013060 </i>
  </energy>
  <time name="totalsc"> 3570.64 3596.05</time>
 </calculation>
 <calculation>
  <scstep>
   <time name="dav">  324.33  324.65</time>
   <time name="total">  357.97  358.31</time>
   <energy>
    <i name="alphaZ">      6.18334092 </i>
    <i name="ewald">   2584.87983152 </i>
    <i name="hartreedc">  -3078.82994609 </i>
    <i name="XCdc">     57.51721519 </i>
    <i name="pawpsdc">    276.96159500 </i>
    <i name="pawaedc">   -282.10992156 </i>
    <i name="eentropy">     -0.00013060 </i>
    <i name="bandstr">   -190.15099761 </i>
    <i name="atom">    588.62352690 </i>
    <i name="e_fr_energy">    -36.92548632 </i>
    <i name="e_wo_entrp">    -36.92535572 </i>
    <i name="e_0_energy">    -36.92542102 </i>
   </energy>
  </scstep>
  <scstep>
   <time name="diag">   81.61   81.72</time>
   <time name="diis">  332.66  334.98</time>
   <time name="orth">    3.07    3.09</time>
   <time name="total">  451.05  453.92</time>
   <energy>
    <i name="e_fr_energy">    -36.92548632 </i>
    <i name="e_wo_entrp">    -36.92535573 </i>
    <i name="e_0_energy">    -36.92542102 </i>
   </energy>
  </scstep>
  <scstep>
   <time name="diag">   81.04   81.74</time>
   <time name="diis">  330.71  332.95</time>
   <time name="orth">    3.07    3.07</time>
   <time name="total">  448.73  451.91</time>
   <energy>
    <i name="e_fr_energy">    -36.92548632 </i>
    <i name="e_wo_entrp">    -36.92535573 </i>
    <i name="e_0_energy">    -36.92542103 </i>
   </energy>
  </scstep>
  <scstep>
   <time name="diag">   81.16   81.82</time>
   <time name="diis">  223.30  224.10</time>
   <time name="orth">    3.07    3.09</time>
   <time name="total">  341.07  342.99</time>
   <energy>
    <i name="e_fr_energy">    -36.92548632 </i>
    <i name="e_wo_entrp">    -36.92535573 </i>
    <i name="e_0_energy">    -36.92542103 </i>
   </energy>
  </scstep>
  <scstep>
   <time name="diag">   81.23   81.69</time>
   <time name="diis">  225.06  226.55</time>
   <time name="orth">    3.07    3.07</time>
   <time name="total">  342.98  345.22</time>
   <energy>
    <i name="e_fr_energy">    -36.92548632 </i>
    <i name="e_wo_entrp">    -36.92535573 </i>
    <i name="e_0_energy">    -36.92542103 </i>
   </energy>
  </scstep>
  <scstep>
   <time name="diag">   81.21   81.74</time>
   <time name="diis">  202.83  204.88</time>
   <time name="orth">    3.06    3.09</time>
   <time name="total">  289.44  292.13</time>
   <energy>
    <i name="alphaZ">      6.18334092 </i>
    <i name="ewald">   2584.87983152 </i>
    <i name="hartreedc">  -3078.82995878 </i>
    <i name="XCdc">     57.51721542 </i>
    <i name="pawpsdc">    276.96159502 </i>
    <i name="pawaedc">   -282.10992156 </i>
    <i name="eentropy">     -0.00013060 </i>
    <i name="bandstr">   -190.15098518 </i>
    <i name="atom">    588.62352690 </i>
    <i name="e_fr_energy">    -36.92548632 </i>
    <i name="e_wo_entrp">    -36.92535573 </i>
    <i name="e_0_energy">    -36.92542103 </i>
   </energy>
  </scstep>
  <structure>
   <crystal>
    <varray name="basis" >
     <v>       4.27368227       0.00000000       0.00000000 </v>
     <v>       0.00000000       2.46742264       0.00000000 </v>
     <v>       0.00000000       0.00000000      19.99414828 </v>
    </varray>
    <i name="volume">    210.83790140 </i>
    <varray name="rec_basis" >
     <v>       0.23399025       0.00000000       0.00000000 </v>
     <v>       0.00000000       0.40528120       0.00000000 </v>
     <v>       0.00000000       0.00000000       0.05001463 </v>
    </varray>
   </crystal>
   <varray name="positions" >
    <v>       0.00000085      -0.00000000       0.00000000 </v>
    <v>       0.16666582       0.50000000      -0.00000000 </v>
    <v>       0.50000085       0.50000000       0.00000000 </v>
    <v>       0.66666582      -0.00000000      -0.00000000 </v>
   </varray>
  </structure>
  <varray name="forces" >
   <v>       0.00000586      -0.00000000      -0.00000000 </v>
   <v>      -0.00000586      -0.00000000      -0.00000000 </v>
   <v>       0.00000586       0.00000000      -0.00000000 </v>
   <v>      -0.00000586      -0.00000000       0.00000000 </v>
  </varray>
  <varray name="stress" >
   <v>      -0.15675309       0.00000000       0.00000000 </v>
   <v>       0.00000000      -0.17203817       0.00000000 </v>
   <v>       0.00000000       0.00000000      -0.01000656 </v>
  </varray>
  <energy>
   <i name="e_fr_energy">    -36.92548632 </i>
   <i name="e_wo_entrp">    -36.92542103 </i>
   <i name="e_0_energy">     -0.00013060 </i>
  </energy>
  <time name="totalsc"> 2335.70 2349.70</time>
 </calculation>
 <calculation>
  <scstep>
   <time name="dav">  256.33  257.45</time>
   <time name="total">  290.15  291.60</time>
   <energy>
    <i name="alphaZ">      6.18334092 </i>
    <i name="ewald">   2584.87983152 </i>
    <i name="hartreedc">  -3078.82995877 </i>
    <i name="XCdc">     57.51721542 </i>
    <i name="pawpsdc">    276.96159502 </i>
    <i name="pawaedc">   -282.10992155 </i>
    <i name="eentropy">     -0.00013060 </i>
    <i name="bandstr">   -190.15098518 </i>
    <i name="atom">    588.62352690 </i>
    <i name="e_fr_energy">    -36.92548632 </i>
    <i name="e_wo_entrp">    -36.92535573 </i>
    <i name="e_0_energy">    -36.92542102 </i>
   </energy>
  </scstep>
  <scstep>
   <time name="diag">   80.96   81.82</time>
   <time name="diis">  177.97  179.65</time>
   <time name="orth">    3.07    3.09</time>
   <time name="total">  295.26  298.04</time>
   <energy>
    <i name="e_fr_energy">    -36.92548632 </i>
    <i name="e_wo_entrp">    -36.92535573 </i>
    <i name="e_0_energy">    -36.92542103 </i>
   </energy>
  </scstep>
  <scstep>
   <time name="diag">   81.29   81.79</time>
   <time name="diis">  176.18  176.45</time>
   <time name="orth">    3.09    3.10</time>
   <time name="total">  293.92  294.81</time>
   <energy>
    <i name="e_fr_energy">    -36.92548632 </i>
    <i name="e_wo_entrp">    -36.92535573 </i>
    <i name="e_0_energy">    -36.92542103 </i>
   </energy>
  </scstep>
  <scstep>
   <time name="diag">   81.06   81.80</time>
   <time name="diis">  170.16  170.90</time>
   <time name="orth">    3.06    3.07</time>
   <time name="total">  287.70  289.36</time>
   <energy>
    <i name="e_fr_energy">    -36.92548633 </i>
    <i name="e_wo_entrp">    -36.92535573 </i>
    <i name="e_0_energy">    -36.92542103 </i>
   </energy>
  </scstep>
  <scstep>
   <time name="diag">   81.41   81.76</time>
   <time name="diis">  167.34  167.39</time>
   <time name="orth">    3.08    3.08</time>
   <time name="total">  285.07  285.51</time>
   <energy>
    <i name="e_fr_energy">    -36.92548633 </i>
    <i name="e_wo_entrp">    -36.92535573 </i>
    <i name="e_0_energy">    -36.92542103 </i>
   </energy>
  </scstep>
  <scstep>
   <time name="diag">   81.38   81.81</time>
   <time name="diis">  163.48  164.02</time>
   <time name="orth">    3.06    3.08</time>
   <time name="total">  250.31  251.34</time>
   <energy>
    <i name="alphaZ">      6.18334092 </i>
    <i name="ewald">   2584.87983152 </i>
    <i name="hartreedc">  -3078.82996110 </i>
    <i name="XCdc">     57.51721546 </i>
    <i name="pawpsdc">    276.96159084 </i>
    <i name="pawaedc">   -282.10991738 </i>
    <i name="eentropy">     -0.00013060 </i>
    <i name="bandstr">   -190.15098288 </i>
    <i name="atom">    588.62352690 </i>
    <i name="e_fr_energy">    -36.92548633 </i>
    <i name="e_wo_entrp">    -36.92535573 </i>
    <i name="e_0_energy">    -36.92542103 </i>
   </energy>
  </scstep>
  <structure>
   <crystal>
    <varray name="basis" >
     <v>       4.27368227       0.00000000       0.00000000 </v>
     <v>       0.00000000       2.46742264       0.00000000 </v>
     <v>       0.00000000       0.00000000      19.99414828 </v>
    </varray>
    <i name="volume">    210.83790140 </i>
    <varray name="rec_basis" >
     <v>       0.23399025       0.00000000       0.00000000 </v>
     <v>       0.00000000       0.40528120       0.00000000 </v>
     <v>       0.00000000       0.00000000       0.05001463 </v>
    </varray>
   </crystal>
   <varray name="positions" >
    <v>       0.00000086      -0.00000000       0.00000000 </v>
    <v>       0.16666580       0.50000000      -0.00000000 </v>
    <v>       0.50000086       0.50000000       0.00000000 </v>
    <v>       0.66666580      -0.00000000      -0.00000000 </v>
   </varray>
  </structure>
  <varray name="forces" >
   <v>      -0.00000320      -0.00000000       0.00000000 </v>
   <v>       0.00000320      -0.00000000      -0.00000000 </v>
   <v>      -0.00000320       0.00000000       0.00000000 </v>
   <v>       0.00000320       0.00000000      -0.00000000 </v>
  </varray>
  <varray name="stress" >
   <v>      -0.15674835       0.00000000       0.00000000 </v>
   <v>       0.00000000      -0.17203668       0.00000000 </v>
   <v>       0.00000000       0.00000000      -0.01001188 </v>
  </varray>
  <energy>
   <i name="e_fr_energy">    -36.92548633 </i>
   <i name="e_wo_entrp">    -36.92542103 </i>
   <i name="e_0_energy">     -0.00013060 </i>
  </energy>
  <time name="totalsc"> 1806.32 1814.96</time>
 </calculation>
 <calculation>
  <scstep>
   <time name="dav">  251.79  253.42</time>
   <time name="total">  285.60  287.57</time>
   <energy>
    <i name="alphaZ">      6.18334092 </i>
    <i name="ewald">   2584.87983152 </i>
    <i name="hartreedc">  -3078.82996134 </i>
    <i name="XCdc">     57.51721546 </i>
    <i name="pawpsdc">    276.96159082 </i>
    <i name="pawaedc">   -282.10991736 </i>
    <i name="eentropy">     -0.00013060 </i>
    <i name="bandstr">   -190.15098266 </i>
    <i name="atom">    588.62352690 </i>
    <i name="e_fr_energy">    -36.92548632 </i>
    <i name="e_wo_entrp">    -36.92535573 </i>
    <i name="e_0_energy">    -36.92542102 </i>
   </energy>
  </scstep>
  <scstep>
   <time name="diag">   81.37   81.82</time>
   <time name="diis">  147.56  148.72</time>
   <time name="orth">    3.09    3.09</time>
   <time name="total">  265.77  268.04</time>
   <energy>
    <i name="e_fr_energy">    -36.92548632 </i>
    <i name="e_wo_entrp">    -36.92535573 </i>
    <i name="e_0_energy">    -36.92542103 </i>
   </energy>
  </scstep>
  <scstep>
   <time name="diag">   81.08   81.78</time>
   <time name="diis">  148.23  149.35</time>
   <time name="orth">    3.07    3.07</time>
   <time name="total">  265.59  267.74</time>
   <energy>
    <i name="e_fr_energy">    -36.92548632 </i>
    <i name="e_wo_entrp">    -36.92535573 </i>
    <i name="e_0_energy">    -36.92542103 </i>
   </energy>
  </scstep>
  <scstep>
   <time name="diag">   81.03   81.79</time>
   <time name="diis">  148.82  148.98</time>
   <time name="orth">    3.08    3.09</time>
   <time name="total">  266.38  267.33</time>
   <energy>
    <i name="e_fr_energy">    -36.92548632 </i>
    <i name="e_wo_entrp">    -36.92535573 </i>
    <i name="e_0_energy">    -36.92542103 </i>
   </energy>
  </scstep>
  <scstep>
   <time name="diag">   81.52   81.74</time>
   <time name="diis">  147.81  148.89</time>
   <time name="orth">    3.14    3.17</time>
   <time name="total">  266.20  267.82</time>
   <energy>
    <i name="e_fr_energy">    -36.92548633 </i>
    <i name="e_wo_entrp">    -36.92535573 </i>
    <i name="e_0_energy">    -36.92542103 </i>
   </energy>
  </scstep>
  <scstep>
   <time name="diag">   81.50   81.78</time>
   <time name="diis">  139.42  139.69</time>
   <time name="orth">    3.09    3.09</time>
   <time name="total">  257.49  258.10</time>
   <energy>
    <i name="e_fr_energy">    -36.92548632 </i>
    <i name="e_wo_entrp">    -36.92535573 </i>
    <i name="e_0_energy">    -36.92542103 </i>
   </energy>
  </scstep>
  <scstep>
   <time name="diag">   81.33   81.75</time>
   <time name="diis">  140.99  141.75</time>
   <time name="orth">    3.06    3.09</time>
   <time name="total">  258.32  259.73</time>
   <energy>
    <i name="e_fr_energy">    -36.92548632 </i>
    <i name="e_wo_entrp">    -36.92535573 </i>
    <i name="e_0_energy">    -36.92542103 </i>
   </energy>
  </scstep>
  <scstep>
   <time name="diag">   81.36   81.89</time>
   <time name="diis">  142.12  142.86</time>
   <time name="orth">    3.07    3.07</time>
   <time name="total">  260.29  262.22</time>
   <energy>
    <i name="e_fr_energy">    -36.92548633 </i>
    <i name="e_wo_entrp">    -36.92535573 </i>
    <i name="e_0_energy">    -36.92542103 </i>
   </energy>
  </scstep>
  <scstep>
   <time name="diag">   81.61   81.76</time>
   <time name="diis">  136.93  137.75</time>
   <time name="orth">    3.08    3.09</time>
   <time name="total">  254.71  256.07</time>
   <energy>
    <i name="e_fr_energy">    -36.92548633 </i>
    <i name="e_wo_entrp">    -36.92535573 </i>
    <i name="e_0_energy">    -36.92542103 </i>
   </energy>
  </scstep>
  <scstep>
   <time name="diag">   81.29   81.71</time>
   <time name="diis">  141.94  143.58</time>
   <time name="orth">    3.07    3.09</time>
   <time name="total">  259.02  261.50</time>
   <energy>
    <i name="e_fr_energy">    -36.92548633 </i>
    <i name="e_wo_entrp">    -36.92535573 </i>
    <i name="e_0_energy">    -36.92542103 </i>
   </energy>
  </scstep>
  <scstep>
   <time name="diag">   80.88   81.72</time>
   <time name="diis">  134.00  134.94</time>
   <time name="orth">    3.06    3.09</time>
   <time name="total">  220.33  222.21</time>
   <energy>
    <i name="alphaZ">      6.18334092 </i>
    <i name="ewald">   2584.87983152 </i>
    <i name="hartreedc">  -3078.82996127 </i>
    <i name="XCdc">     57.51721546 </i>
    <i name="pawpsdc">    276.96159094 </i>
    <i name="pawaedc">   -282.10991747 </i>
    <i name="eentropy">     -0.00013060 </i>
    <i name="bandstr">   -190.15098272 </i>
    <i name="atom">    588.62352690 </i>
    <i name="e_fr_energy">    -36.92548633 </i>
    <i name="e_wo_entrp">    -36.92535573 </i>
    <i name="e_0_energy">    -36.92542103 </i>
   </energy>
  </scstep>
  <structure>
   <crystal>
    <varray name="basis" >
     <v>       4.27368227       0.00000000       0.00000000 </v>
     <v>       0.00000000       2.46742264       0.00000000 </v>
     <v>       0.00000000       0.00000000      19.99414828 </v>
    </varray>
    <i name="volume">    210.83790140 </i>
    <varray name="rec_basis" >
     <v>       0.23399025       0.00000000       0.00000000 </v>
     <v>       0.00000000       0.40528120       0.00000000 </v>
     <v>       0.00000000       0.00000000       0.05001463 </v>
    </varray>
   </crystal>
   <varray name="positions" >
    <v>       0.00000086      -0.00000000       0.00000000 </v>
    <v>       0.16666581       0.50000000      -0.00000000 </v>
    <v>       0.50000086       0.50000000       0.00000000 </v>
    <v>       0.66666581      -0.00000000      -0.00000000 </v>
   </varray>
  </structure>
  <varray name="forces" >
   <v>       0.00000350      -0.00000000       0.00000000 </v>
   <v>      -0.00000350      -0.00000000      -0.00000000 </v>
   <v>       0.00000350       0.00000000       0.00000000 </v>
   <v>      -0.00000350      -0.00000000      -0.00000000 </v>
  </varray>
  <varray name="stress" >
   <v>      -0.15671908       0.00000000       0.00000000 </v>
   <v>       0.00000000      -0.17207004       0.00000000 </v>
   <v>       0.00000000       0.00000000      -0.01001308 </v>
  </varray>
  <energy>
   <i name="e_fr_energy">    -36.92548633 </i>
   <i name="e_wo_entrp">    -36.92542103 </i>
   <i name="e_0_energy">     -0.00013060 </i>
  </energy>
  <time name="totalsc"> 2962.50 2982.09</time>
 </calculation>
 <calculation>
  <scstep>
   <time name="dav">  245.98  247.48</time>
   <time name="total">  279.05  280.94</time>
   <energy>
    <i name="alphaZ">      6.18334092 </i>
    <i name="ewald">   2584.87983152 </i>
    <i name="hartreedc">  -3078.82996127 </i>
    <i name="XCdc">     57.51721546 </i>
    <i name="pawpsdc">    276.96159094 </i>
    <i name="pawaedc">   -282.10991747 </i>
    <i name="eentropy">     -0.00013060 </i>
    <i name="bandstr">   -190.15098272 </i>
    <i name="atom">    588.62352690 </i>
    <i name="e_fr_energy">    -36.92548632 </i>
    <i name="e_wo_entrp">    -36.92535572 </i>
    <i name="e_0_energy">    -36.92542102 </i>
   </energy>
  </scstep>
  <scstep>
   <time name="diag">   80.91   81.75</time>
   <time name="diis">  112.99  114.26</time>
   <time name="orth">    3.06    3.09</time>
   <time name="total">  230.41  232.99</time>
   <energy>
    <i name="e_fr_energy">    -36.92548632 </i>
    <i name="e_wo_entrp">    -36.92535573 </i>
    <i name="e_0_energy">    -36.92542103 </i>
   </energy>
  </scstep>
  <scstep>
   <time name="diag">   80.89   81.71</time>
   <time name="diis">  120.43  121.66</time>
   <time name="orth">    3.08    3.09</time>
   <time name="total">  237.83  240.43</time>
   <energy>
    <i name="e_fr_energy">    -36.92548632 </i>
    <i name="e_wo_entrp">    -36.92535573 </i>
    <i name="e_0_energy">    -36.92542103 </i>
   </energy>
  </scstep>
  <scstep>
   <time name="diag">   80.86   81.71</time>
   <time name="diis">  107.18  108.37</time>
   <time name="orth">    3.07    3.07</time>
   <time name="total">  224.88  227.30</time>
   <energy>
    <i name="e_fr_energy">    -36.92548632 </i>
    <i name="e_wo_entrp">    -36.92535573 </i>
    <i name="e_0_energy">    -36.92542103 </i>
   </energy>
  </scstep>
  <scstep>
   <time name="diag">   81.18   81.76</time>
   <time name="diis">  110.20  111.25</time>
   <time name="orth">    3.07    3.07</time>
   <time name="total">  227.88  230.69</time>
   <energy>
    <i name="e_fr_energy">    -36.92548633 </i>
    <i name="e_wo_entrp">    -36.92535573 </i>
    <i name="e_0_energy">    -36.92542103 </i>
   </energy>
  </scstep>
  <scstep>
   <time name="diag">   81.21   81.74</time>
   <time name="diis">  118.31  118.40</time>
   <time name="orth">    3.07    3.09</time>
   <time name="total">  205.06  205.69</time>
   <energy>
    <i name="alphaZ">      6.18334092 </i>
    <i name="ewald">   2584.87983152 </i>
    <i name="hartreedc">  -3078.82996125 </i>
    <i name="XCdc">     57.51721546 </i>
    <i name="pawpsdc">    276.96159087 </i>
    <i name="pawaedc">   -282.10991741 </i>
    <i name="eentropy">     -0.00013060 </i>
    <i name="bandstr">   -190.15098274 </i>
    <i name="atom">    588.62352690 </i>
    <i name="e_fr_energy">    -36.92548633 </i>
    <i name="e_wo_entrp">    -36.92535573 </i>
    <i name="e_0_energy">    -36.92542103 </i>
   </energy>
  </scstep>
  <structure>
   <crystal>
    <varray name="basis" >
     <v>       4.27368227       0.00000000       0.00000000 </v>
     <v>       0.00000000       2.46742264       0.00000000 </v>
     <v>       0.00000000       0.00000000      19.99414828 </v>
    </varray>
    <i name="volume">    210.83790140 </i>
    <varray name="rec_basis" >
     <v>       0.23399025       0.00000000       0.00000000 </v>
     <v>       0.00000000       0.40528120       0.00000000 </v>
     <v>       0.00000000       0.00000000       0.05001463 </v>
    </varray>
   </crystal>
   <varray name="positions" >
    <v>       0.00000086      -0.00000000       0.00000000 </v>
    <v>       0.16666580       0.50000000      -0.00000000 </v>
    <v>       0.50000086       0.50000000       0.00000000 </v>
    <v>       0.66666580      -0.00000000      -0.00000000 </v>
   </varray>
  </structure>
  <varray name="forces" >
   <v>       0.00000061      -0.00000000      -0.00000000 </v>
   <v>      -0.00000061       0.00000000       0.00000000 </v>
   <v>       0.00000061       0.00000000      -0.00000000 </v>
   <v>      -0.00000061      -0.00000000       0.00000000 </v>
  </varray>
  <varray name="stress" >
   <v>      -0.15673068       0.00000000       0.00000000 </v>
   <v>       0.00000000      -0.17205751       0.00000000 </v>
   <v>       0.00000000       0.00000000      -0.01001346 </v>
  </varray>
  <energy>
[...]
       <r>   -9.2039    1.0000 </r>
       <r>   -5.5952    1.0000 </r>
       <r>   -5.5952    1.0000 </r>
       <r>   -0.4228    0.0000 </r>
       <r>   -0.4228    0.0000 </r>
       <r>    4.8361    0.0000 </r>
       <r>    4.8361    0.0000 </r>
      </set>
      <set comment="kpoint 209">
       <r>  -18.8384    1.0000 </r>
       <r>  -17.0477    1.0000 </r>
       <r>  -14.0487    1.0000 </r>
       <r>  -12.4211    1.0000 </r>
       <r>  -12.4176    1.0000 </r>
       <r>  -10.8849    1.0000 </r>
       <r>   -6.4192    1.0000 </r>
       <r>   -4.5286    1.0000 </r>
       <r>   -0.9852    0.0000 </r>
       <r>    1.1819    0.0000 </r>
       <r>    5.2480    0.0000 </r>
       <r>    6.0366    0.0000 </r>
      </set>
      <set comment="kpoint 210">
       <r>  -18.8287    1.0000 </r>
       <r>  -17.0400    1.0000 </r>
       <r>  -14.1350    1.0000 </r>
       <r>  -12.5004    1.0000 </r>
       <r>  -12.3236    1.0000 </r>
       <r>  -10.8078    1.0000 </r>
       <r>   -6.4104    1.0000 </r>
       <r>   -4.5315    1.0000 </r>
       <r>   -0.9949    0.0000 </r>
       <r>    1.1563    0.0000 </r>
       <r>    5.2616    0.0000 </r>
       <r>    6.0526    0.0000 </r>
      </set>
      <set comment="kpoint 211">
       <r>  -18.7996    1.0000 </r>
       <r>  -17.0169    1.0000 </r>
       <r>  -14.3495    1.0000 </r>
       <r>  -12.7017    1.0000 </r>
       <r>  -12.0860    1.0000 </r>
       <r>  -10.6141    1.0000 </r>
       <r>   -6.3840    1.0000 </r>
       <r>   -4.5408    1.0000 </r>
       <r>   -1.0220    0.0000 </r>
       <r>    1.0815    0.0000 </r>
       <r>    5.3023    0.0000 </r>
       <r>    6.1004    0.0000 </r>
      </set>
      <set comment="kpoint 212">
       <r>  -18.7511    1.0000 </r>
       <r>  -16.9799    1.0000 </r>
       <r>  -14.6236    1.0000 </r>
       <r>  -12.9662    1.0000 </r>
       <r>  -11.7735    1.0000 </r>
       <r>  -10.3644    1.0000 </r>
       <r>   -6.3403    1.0000 </r>
       <r>   -4.5579    1.0000 </r>
       <r>   -1.0614    0.0000 </r>
       <r>    0.9627    0.0000 </r>
       <r>    5.3698    0.0000 </r>
       <r>    6.1788    0.0000 </r>
      </set>
      <set comment="kpoint 213">
       <r>  -18.6835    1.0000 </r>
       <r>  -16.9315    1.0000 </r>
       <r>  -14.9154    1.0000 </r>
       <r>  -13.2578    1.0000 </r>
       <r>  -11.4277    1.0000 </r>
       <r>  -10.0983    1.0000 </r>
       <r>   -6.2800    1.0000 </r>
       <r>   -4.5853    1.0000 </r>
       <r>   -1.1056    0.0000 </r>
       <r>    0.8076    0.0000 </r>
       <r>    5.4629    0.0000 </r>
       <r>    6.2865    0.0000 </r>
      </set>
      <set comment="kpoint 214">
       <r>  -18.5969    1.0000 </r>
       <r>  -16.8768    1.0000 </r>
       <r>  -15.2011    1.0000 </r>
       <r>  -13.5582    1.0000 </r>
       <r>  -11.0707    1.0000 </r>
       <r>   -9.8385    1.0000 </r>
       <r>   -6.2035    1.0000 </r>
       <r>   -4.6255    1.0000 </r>
       <r>   -1.1455    0.0000 </r>
       <r>    0.6249    0.0000 </r>
       <r>    5.5763    0.0000 </r>
       <r>    6.1669    0.0000 </r>
      </set>
      <set comment="kpoint 215">
       <r>  -18.4916    1.0000 </r>
       <r>  -16.8263    1.0000 </r>
       <r>  -15.4608    1.0000 </r>
       <r>  -13.8578    1.0000 </r>
       <r>  -10.7160    1.0000 </r>
       <r>   -9.6004    1.0000 </r>
       <r>   -6.1121    1.0000 </r>
       <r>   -4.6812    1.0000 </r>
       <r>   -1.1721    0.0000 </r>
       <r>    0.4235    0.0000 </r>
       <r>    5.6147    0.0000 </r>
       <r>    5.8357    0.0000 </r>
      </set>
      <set comment="kpoint 216">
       <r>  -18.3681    1.0000 </r>
       <r>  -16.8008    1.0000 </r>
       <r>  -15.6688    1.0000 </r>
       <r>  -14.1507    1.0000 </r>
       <r>  -10.3743    1.0000 </r>
       <r>   -9.3963    1.0000 </r>
       <r>   -6.0069    1.0000 </r>
       <r>   -4.7542    1.0000 </r>
       <r>   -1.1775    0.0000 </r>
       <r>    0.2117    0.0000 </r>
       <r>    5.3048    0.0000 </r>
       <r>    5.9454    0.0000 </r>
      </set>
      <set comment="kpoint 217">
       <r>  -18.2268    1.0000 </r>
       <r>  -16.8325    1.0000 </r>
       <r>  -15.7898    1.0000 </r>
       <r>  -14.4330    1.0000 </r>
       <r>  -10.0550    1.0000 </r>
       <r>   -9.2364    1.0000 </r>
       <r>   -5.8895    1.0000 </r>
       <r>   -4.8450    1.0000 </r>
       <r>   -1.1558    0.0000 </r>
       <r>   -0.0028    0.0000 </r>
       <r>    5.0105    0.0000 </r>
       <r>    5.8399    0.0000 </r>
      </set>
      <set comment="kpoint 218">
       <r>  -18.0687    1.0000 </r>
       <r>  -16.9418    1.0000 </r>
       <r>  -15.8015    1.0000 </r>
       <r>  -14.7018    1.0000 </r>
       <r>   -9.7670    1.0000 </r>
       <r>   -9.1296    1.0000 </r>
       <r>   -5.7620    1.0000 </r>
       <r>   -4.9524    1.0000 </r>
       <r>   -1.1038    0.0000 </r>
       <r>   -0.2134    0.0000 </r>
       <r>    4.7957    0.0000 </r>
       <r>    5.4427    0.0000 </r>
      </set>
      <set comment="kpoint 219">
       <r>  -17.8950    1.0000 </r>
       <r>  -17.1106    1.0000 </r>
       <r>  -15.7211    1.0000 </r>
       <r>  -14.9543    1.0000 </r>
       <r>   -9.5196    1.0000 </r>
       <r>   -9.0823    1.0000 </r>
       <r>   -5.6268    1.0000 </r>
       <r>   -5.0741    1.0000 </r>
       <r>   -1.0204    0.0000 </r>
       <r>   -0.4142    0.0000 </r>
       <r>    4.6712    0.0000 </r>
       <r>    5.1157    0.0000 </r>
      </set>
      <set comment="kpoint 220">
       <r>  -17.7076    1.0000 </r>
       <r>  -17.3070    1.0000 </r>
       <r>  -15.5796    1.0000 </r>
       <r>  -15.1877    1.0000 </r>
       <r>   -9.3212    1.0000 </r>
       <r>   -9.0986    1.0000 </r>
       <r>   -5.4868    1.0000 </r>
       <r>   -5.2065    1.0000 </r>
       <r>   -0.9067    0.0000 </r>
       <r>   -0.5997    0.0000 </r>
       <r>    4.6417    0.0000 </r>
       <r>    4.8682    0.0000 </r>
      </set>
      <set comment="kpoint 221">
       <r>  -17.5097    1.0000 </r>
       <r>  -17.5097    1.0000 </r>
       <r>  -15.3982    1.0000 </r>
       <r>  -15.3982    1.0000 </r>
       <r>   -9.1791    1.0000 </r>
       <r>   -9.1791    1.0000 </r>
       <r>   -5.3454    1.0000 </r>
       <r>   -5.3454    1.0000 </r>
       <r>   -0.7653    0.0000 </r>
       <r>   -0.7653    0.0000 </r>
       <r>    4.7083    0.0000 </r>
       <r>    4.7083    0.0000 </r>
      </set>
      <set comment="kpoint 222">
       <r>  -18.4158    1.0000 </r>
       <r>  -17.5167    1.0000 </r>
       <r>  -13.6720    1.0000 </r>
       <r>  -12.8573    1.0000 </r>
       <r>  -12.0671    1.0000 </r>
       <r>  -11.2961    1.0000 </r>
       <r>   -5.9589    1.0000 </r>
       <r>   -5.0082    1.0000 </r>
       <r>   -0.4768    0.0000 </r>
       <r>    0.6089    0.0000 </r>
       <r>    5.8481    0.0000 </r>
       <r>    6.5997    0.0000 </r>
      </set>
      <set comment="kpoint 223">
       <r>  -18.4062    1.0000 </r>
       <r>  -17.5079    1.0000 </r>
       <r>  -13.7582    1.0000 </r>
       <r>  -12.9396    1.0000 </r>
       <r>  -11.9759    1.0000 </r>
       <r>  -11.2136    1.0000 </r>
       <r>   -5.9513    1.0000 </r>
       <r>   -5.0058    1.0000 </r>
       <r>   -0.4931    0.0000 </r>
       <r>    0.5854    0.0000 </r>
       <r>    5.8616    0.0000 </r>
       <r>    6.6166    0.0000 </r>
      </set>
      <set comment="kpoint 224">
       <r>  -18.3776    1.0000 </r>
       <r>  -17.4816    1.0000 </r>
       <r>  -13.9732    1.0000 </r>
       <r>  -13.1467    1.0000 </r>
       <r>  -11.7460    1.0000 </r>
       <r>  -11.0062    1.0000 </r>
       <r>   -5.9290    1.0000 </r>
       <r>   -4.9990    1.0000 </r>
       <r>   -0.5403    0.0000 </r>
       <r>    0.5167    0.0000 </r>
       <r>    5.9021    0.0000 </r>
       <r>    6.6669    0.0000 </r>
      </set>
      <set comment="kpoint 225">
       <r>  -18.3300    1.0000 </r>
       <r>  -17.4383    1.0000 </r>
       <r>  -14.2504    1.0000 </r>
       <r>  -13.4171    1.0000 </r>
       <r>  -11.4454    1.0000 </r>
       <r>  -10.7373    1.0000 </r>
       <r>   -5.8922    1.0000 </r>
       <r>   -4.9890    1.0000 </r>
       <r>   -0.6130    0.0000 </r>
       <r>    0.4081    0.0000 </r>
       <r>    5.9691    0.0000 </r>
       <r>    6.7490    0.0000 </r>
      </set>
      <set comment="kpoint 226">
       <r>  -18.2637    1.0000 </r>
       <r>  -17.3789    1.0000 </r>
       <r>  -14.5500    1.0000 </r>
       <r>  -13.7136    1.0000 </r>
       <r>  -11.1153    1.0000 </r>
       <r>  -10.4472    1.0000 </r>
       <r>   -5.8417    1.0000 </r>
       <r>   -4.9776    1.0000 </r>
       <r>   -0.7037    0.0000 </r>
       <r>    0.2671    0.0000 </r>
       <r>    6.0603    0.0000 </r>
       <r>    6.8613    0.0000 </r>
      </set>
      <set comment="kpoint 227">
       <r>  -18.1790    1.0000 </r>
       <r>  -17.3049    1.0000 </r>
       <r>  -14.8520    1.0000 </r>
       <r>  -14.0174    1.0000 </r>
       <r>  -10.7780    1.0000 </r>
       <r>  -10.1586    1.0000 </r>
       <r>   -5.7788    1.0000 </r>
       <r>   -4.9673    1.0000 </r>
       <r>   -0.8027    0.0000 </r>
       <r>    0.1026    0.0000 </r>
       <r>    6.1545    0.0000 </r>
       <r>    6.4488    0.0000 </r>
      </set>
      <set comment="kpoint 228">
       <r>  -18.0764    1.0000 </r>
       <r>  -17.2192    1.0000 </r>
       <r>  -15.1442    1.0000 </r>
       <r>  -14.3188    1.0000 </r>
       <r>  -10.4475    1.0000 </r>
       <r>   -9.8864    1.0000 </r>
       <r>   -5.7048    1.0000 </r>
       <r>   -4.9612    1.0000 </r>
       <r>   -0.9001    0.0000 </r>
       <r>   -0.0762    0.0000 </r>
       <r>    5.9055    0.0000 </r>
       <r>    6.3709    0.0000 </r>
      </set>
      <set comment="kpoint 229">
       <r>  -17.9566    1.0000 </r>
       <r>  -17.1271    1.0000 </r>
       <r>  -15.4162    1.0000 </r>
       <r>  -14.6118    1.0000 </r>
       <r>  -10.1348    1.0000 </r>
       <r>   -9.6426    1.0000 </r>
       <r>   -5.6218    1.0000 </r>
       <r>   -4.9628    1.0000 </r>
       <r>   -0.9859    0.0000 </r>
       <r>   -0.2604    0.0000 </r>
       <r>    5.5006    0.0000 </r>
       <r>    5.9972    0.0000 </r>
      </set>
      <set comment="kpoint 230">
       <r>  -17.8208    1.0000 </r>
       <r>  -17.0394    1.0000 </r>
       <r>  -15.6542    1.0000 </r>
       <r>  -14.8921    1.0000 </r>
       <r>   -9.8497    1.0000 </r>
       <r>   -9.4375    1.0000 </r>
       <r>   -5.5322    1.0000 </r>
       <r>   -4.9756    1.0000 </r>
       <r>   -1.0511    0.0000 </r>
       <r>   -0.4416    0.0000 </r>
       <r>    5.1557    0.0000 </r>
       <r>    5.5724    0.0000 </r>
      </set>
      <set comment="kpoint 231">
       <r>  -17.6708    1.0000 </r>
       <r>  -16.9771    1.0000 </r>
       <r>  -15.8354    1.0000 </r>
       <r>  -15.1556    1.0000 </r>
       <r>   -9.6017    1.0000 </r>
       <r>   -9.2804    1.0000 </r>
       <r>   -5.4389    1.0000 </r>
       <r>   -5.0021    1.0000 </r>
       <r>   -1.0884    0.0000 </r>
       <r>   -0.6123    0.0000 </r>
       <r>    4.8885    0.0000 </r>
       <r>    5.2140    0.0000 </r>
      </set>
      <set comment="kpoint 232">
       <r>  -17.5097    1.0000 </r>
       <r>  -16.9731    1.0000 </r>
       <r>  -15.9257    1.0000 </r>
       <r>  -15.3982    1.0000 </r>
       <r>   -9.3996    1.0000 </r>
       <r>   -9.1791    1.0000 </r>
       <r>   -5.3454    1.0000 </r>
       <r>   -5.0441    1.0000 </r>
       <r>   -1.0927    0.0000 </r>
       <r>   -0.7653    0.0000 </r>
       <r>    4.7083    0.0000 </r>
       <r>    4.9321    0.0000 </r>
      </set>
      <set comment="kpoint 233">
       <r>  -17.3430    1.0000 </r>
       <r>  -17.0478    1.0000 </r>
       <r>  -15.9039    1.0000 </r>
       <r>  -15.6131    1.0000 </r>
       <r>   -9.2515    1.0000 </r>
       <r>   -9.1392    1.0000 </r>
       <r>   -5.2554    1.0000 </r>
       <r>   -5.1015    1.0000 </r>
       <r>   -1.0614    0.0000 </r>
       <r>   -0.8945    0.0000 </r>
       <r>    4.6213    0.0000 </r>
       <r>    4.7354    0.0000 </r>
      </set>
      <set comment="kpoint 234">
       <r>  -17.1820    1.0000 </r>
       <r>  -17.1820    1.0000 </r>
       <r>  -15.7888    1.0000 </r>
       <r>  -15.7888    1.0000 </r>
       <r>   -9.1635    1.0000 </r>
       <r>   -9.1635    1.0000 </r>
       <r>   -5.1729    1.0000 </r>
       <r>   -5.1729    1.0000 </r>
       <r>   -0.9946    0.0000 </r>
       <r>   -0.9946    0.0000 </r>
       <r>    4.6305    0.0000 </r>
       <r>    4.6305    0.0000 </r>
      </set>
      <set comment="kpoint 235">
       <r>  -17.9742    1.0000 </r>
       <r>  -17.9742    1.0000 </r>
       <r>  -13.2746    1.0000 </r>
       <r>  -13.2746    1.0000 </r>
       <r>  -11.6916    1.0000 </r>
       <r>  -11.6916    1.0000 </r>
       <r>   -5.4869    1.0000 </r>
       <r>   -5.4869    1.0000 </r>
       <r>    0.0552    0.0000 </r>
       <r>    0.0552    0.0000 </r>
       <r>    6.4796    0.0000 </r>
       <r>    6.4796    0.0000 </r>
      </set>
      <set comment="kpoint 236">
       <r>  -17.9649    1.0000 </r>
       <r>  -17.9649    1.0000 </r>
       <r>  -13.3592    1.0000 </r>
       <r>  -13.3592    1.0000 </r>
       <r>  -11.6043    1.0000 </r>
       <r>  -11.6043    1.0000 </r>
       <r>   -5.4814    1.0000 </r>
       <r>   -5.4814    1.0000 </r>
       <r>    0.0346    0.0000 </r>
       <r>    0.0346    0.0000 </r>
       <r>    6.4931    0.0000 </r>
       <r>    6.4931    0.0000 </r>
      </set>
      <set comment="kpoint 237">
       <r>  -17.9371    1.0000 </r>
       <r>  -17.9371    1.0000 </r>
       <r>  -13.5712    1.0000 </r>
       <r>  -13.5712    1.0000 </r>
       <r>  -11.3847    1.0000 </r>
       <r>  -11.3847    1.0000 </r>
       <r>   -5.4650    1.0000 </r>
       <r>   -5.4650    1.0000 </r>
       <r>   -0.0253    0.0000 </r>
       <r>   -0.0253    0.0000 </r>
       <r>    6.5334    0.0000 </r>
       <r>    6.5334    0.0000 </r>
      </set>
      <set comment="kpoint 238">
       <r>  -17.8910    1.0000 </r>
       <r>  -17.8910    1.0000 </r>
       <r>  -13.8462    1.0000 </r>
       <r>  -13.8462    1.0000 </r>
       <r>  -11.0988    1.0000 </r>
       <r>  -11.0988    1.0000 </r>
       <r>   -5.4386    1.0000 </r>
       <r>   -5.4386    1.0000 </r>
       <r>   -0.1195    0.0000 </r>
       <r>   -0.1195    0.0000 </r>
       <r>    6.5995    0.0000 </r>
       <r>    6.5995    0.0000 </r>
      </set>
      <set comment="kpoint 239">
       <r>  -17.8270    1.0000 </r>
       <r>  -17.8270    1.0000 </r>
       <r>  -14.1459    1.0000 </r>
       <r>  -14.1459    1.0000 </r>
       <r>  -10.7873    1.0000 </r>
       <r>  -10.7873    1.0000 </r>
       <r>   -5.4033    1.0000 </r>
       <r>   -5.4033    1.0000 </r>
       <r>   -0.2403    0.0000 </r>
       <r>   -0.2403    0.0000 </r>
       <r>    6.6863    0.0000 </r>
       <r>    6.6863    0.0000 </r>
      </set>
      <set comment="kpoint 240">
       <r>  -17.7457    1.0000 </r>
       <r>  -17.7457    1.0000 </r>
       <r>  -14.4511    1.0000 </r>
       <r>  -14.4511    1.0000 </r>
       <r>  -10.4729    1.0000 </r>
       <r>  -10.4729    1.0000 </r>
       <r>   -5.3609    1.0000 </r>
       <r>   -5.3609    1.0000 </r>
       <r>   -0.3785    0.0000 </r>
       <r>   -0.3785    0.0000 </r>
       <r>    6.6446    0.0000 </r>
       <r>    6.6446    0.0000 </r>
      </set>
      <set comment="kpoint 241">
       <r>  -17.6482    1.0000 </r>
       <r>  -17.6482    1.0000 </r>
       <r>  -14.7515    1.0000 </r>
       <r>  -14.7515    1.0000 </r>
       <r>  -10.1698    1.0000 </r>
       <r>  -10.1698    1.0000 </r>
       <r>   -5.3136    1.0000 </r>
       <r>   -5.3136    1.0000 </r>
       <r>   -0.5245    0.0000 </r>
       <r>   -0.5245    0.0000 </r>
       <r>    6.1790    0.0000 </r>
       <r>    6.1790    0.0000 </r>
      </set>
      <set comment="kpoint 242">
       <r>  -17.5362    1.0000 </r>
       <r>  -17.5362    1.0000 </r>
       <r>  -15.0404    1.0000 </r>
       <r>  -15.0404    1.0000 </r>
       <r>   -9.8898    1.0000 </r>
       <r>   -9.8898    1.0000 </r>
       <r>   -5.2644    1.0000 </r>
       <r>   -5.2644    1.0000 </r>
       <r>   -0.6686    0.0000 </r>
       <r>   -0.6686    0.0000 </r>
       <r>    5.7312    0.0000 </r>
       <r>    5.7312    0.0000 </r>
      </set>
      <set comment="kpoint 243">
       <r>  -17.4126    1.0000 </r>
       <r>  -17.4126    1.0000 </r>
       <r>  -15.3115    1.0000 </r>
       <r>  -15.3115    1.0000 </r>
       <r>   -9.6428    1.0000 </r>
       <r>   -9.6428    1.0000 </r>
       <r>   -5.2166    1.0000 </r>
       <r>   -5.2166    1.0000 </r>
       <r>   -0.8017    0.0000 </r>
       <r>   -0.8017    0.0000 </r>
       <r>    5.3435    0.0000 </r>
       <r>    5.3435    0.0000 </r>
      </set>
      <set comment="kpoint 244">
       <r>  -17.2830    1.0000 </r>
       <r>  -17.2830    1.0000 </r>
       <r>  -15.5575    1.0000 </r>
       <r>  -15.5575    1.0000 </r>
       <r>   -9.4385    1.0000 </r>
       <r>   -9.4385    1.0000 </r>
       <r>   -5.1739    1.0000 </r>
       <r>   -5.1739    1.0000 </r>
       <r>   -0.9155    0.0000 </r>
       <r>   -0.9155    0.0000 </r>
       <r>    5.0285    0.0000 </r>
       <r>    5.0285    0.0000 </r>
      </set>
      <set comment="kpoint 245">
       <r>  -17.1582    1.0000 </r>
       <r>  -17.1582    1.0000 </r>
       <r>  -15.7661    1.0000 </r>
       <r>  -15.7661    1.0000 </r>
       <r>   -9.2854    1.0000 </r>
       <r>   -9.2854    1.0000 </r>
       <r>   -5.1400    1.0000 </r>
       <r>   -5.1400    1.0000 </r>
       <r>   -1.0026    0.0000 </r>
       <r>   -1.0026    0.0000 </r>
       <r>    4.7957    0.0000 </r>
       <r>    4.7957    0.0000 </r>
      </set>
      <set comment="kpoint 246">
       <r>  -17.0595    1.0000 </r>
       <r>  -17.0595    1.0000 </r>
       <r>  -15.9154    1.0000 </r>
       <r>  -15.9154    1.0000 </r>
       <r>   -9.1904    1.0000 </r>
       <r>   -9.1904    1.0000 </r>
       <r>   -5.1181    1.0000 </r>
       <r>   -5.1181    1.0000 </r>
       <r>   -1.0574    0.0000 </r>
       <r>   -1.0574    0.0000 </r>
       <r>    4.6527    0.0000 </r>
       <r>    4.6527    0.0000 </r>
      </set>
      <set comment="kpoint 247">
       <r>  -17.0200    1.0000 </r>
       <r>  -17.0200    1.0000 </r>
       <r>  -15.9719    1.0000 </r>
       <r>  -15.9719    1.0000 </r>
       <r>   -9.1582    1.0000 </r>
       <r>   -9.1582    1.0000 </r>
       <r>   -5.1106    1.0000 </r>
       <r>   -5.1106    1.0000 </r>
       <r>   -1.0761    0.0000 </r>
       <r>   -1.0761    0.0000 </r>
       <r>    4.6044    0.0000 </r>
       <r>    4.6044    0.0000 </r>
      </set>
     </set>
    </set>
   </array>
  </eigenvalues>
  <separator name="orbital magnetization" >
   <v name="MAGDIPOLOUT">      0.00000000      0.00000000      0.00000000</v>
  </separator>
 </calculation>
 <structure name="finalpos" >
  <crystal>
   <varray name="basis" >
    <v>       4.27368227       0.00000000       0.00000000 </v>
    <v>       0.00000000       2.46742264       0.00000000 </v>
    <v>       0.00000000       0.00000000      19.99414828 </v>
   </varray>
   <i name="volume">    210.83790140 </i>
   <varray name="rec_basis" >
    <v>       0.23399025       0.00000000       0.00000000 </v>
    <v>       0.00000000       0.40528120       0.00000000 </v>
    <v>       0.00000000       0.00000000       0.05001463 </v>
   </varray>
  </crystal>
  <varray name="positions" >
   <v>       0.00000086      -0.00000000       0.00000000 </v>
   <v>       0.16666580       0.50000000      -0.00000000 </v>
   <v>       0.50000086       0.50000000       0.00000000 </v>
   <v>       0.66666580      -0.00000000      -0.00000000 </v>
  </varray>
 </structure>
</modeling>
