gr                                      
           1
     4.273682    0.000000    0.000000
     0.000000    2.467423    0.000000
     0.000000    0.000000   19.994148
   C 
   4
Direct configuration=     1
   0.00013158  0.00000000  0.00000000
   0.16653509  0.50000000  0.00000000
   0.50013158  0.50000000  0.00000000
   0.66653509  0.00000000  0.00000000
Direct configuration=     2
  -0.00052100 -0.00000000  0.00000000
   0.16718767  0.50000000 -0.00000000
   0.49947900  0.50000000  0.00000000
   0.66718767 -0.00000000 -0.00000000
Direct configuration=     3
   0.00000203 -0.00000000  0.00000000
   0.16666464  0.50000000 -0.00000000
   0.50000203  0.50000000  0.00000000
   0.66666464 -0.00000000 -0.00000000
Direct configuration=     4
   0.00000085 -0.00000000  0.00000000
   0.16666582  0.50000000 -0.00000000
   0.50000085  0.50000000  0.00000000
   0.66666582 -0.00000000 -0.00000000
Direct configuration=     5
   0.00000086 -0.00000000  0.00000000
   0.16666580  0.50000000 -0.00000000
   0.50000086  0.50000000  0.00000000
   0.66666580 -0.00000000 -0.00000000
Direct configuration=     6
   0.00000086 -0.00000000  0.00000000
   0.16666581  0.50000000 -0.00000000
   0.50000086  0.50000000  0.00000000
   0.66666581 -0.00000000 -0.00000000
Direct configuration=     7
   0.00000086 -0.00000000  0.00000000
   0.16666580  0.50000000 -0.00000000
   0.50000086  0.50000000  0.00000000
   0.66666580 -0.00000000 -0.00000000
