 running on    8 total cores
 distrk:  each k-point on    8 cores,    1 groups
 distr:  one band on    2 cores,    4 groups
 using from now: INCAR     
 vasp.5.3.5 31Mar14 (build Mar 02 2015 18:14:16) complex                        
  
 POSCAR found type information on POSCAR  C 
 POSCAR found :  1 types and       4 ions
 LDA part: xc-table for Pade appr. of Perdew
 POSCAR, INCAR and KPOINTS ok, starting setup
 FFT: planning ...
 WAVECAR not read
 entering main loop
       N       E                     dE             d eps       ncg     rms          rms(c)
DAV:   1     0.187446396047E+03    0.18745E+03   -0.10637E+04  5928   0.275E+03
DAV:   2    -0.958349853897E+01   -0.19703E+03   -0.17521E+03 10460   0.258E+02
DAV:   3    -0.382866606836E+02   -0.28703E+02   -0.28106E+02  7312   0.118E+02    0.725E+00
RMM:   4    -0.376502255702E+02    0.63644E+00   -0.92904E+00  5928   0.260E+01    0.419E+00
RMM:   5    -0.369095433863E+02    0.74068E+00   -0.27977E+00  5935   0.114E+01    0.721E-01
RMM:   6    -0.369114588526E+02   -0.19155E-02   -0.85572E-02  6363   0.202E+00    0.518E-01
RMM:   7    -0.369022942777E+02    0.91646E-02   -0.33676E-02  5951   0.159E+00    0.344E-01
RMM:   8    -0.368966864142E+02    0.56079E-02   -0.75836E-03  5941   0.571E-01    0.137E-01
RMM:   9    -0.368964651391E+02    0.22128E-03   -0.21235E-02  5930   0.862E-01    0.162E-01
RMM:  10    -0.368962546009E+02    0.21054E-03   -0.26875E-03  5933   0.365E-01    0.288E-02
RMM:  11    -0.368987953517E+02   -0.25408E-02   -0.93964E-04  5939   0.188E-01    0.466E-02
RMM:  12    -0.368992428225E+02   -0.44747E-03   -0.36326E-04  5948   0.100E-01    0.582E-03
RMM:  13    -0.368995204222E+02   -0.27760E-03   -0.19145E-04  6015   0.417E-02    0.384E-03
RMM:  14    -0.369006015596E+02   -0.10811E-02   -0.16794E-04  5954   0.191E-02    0.818E-03
RMM:  15    -0.369021569410E+02   -0.15554E-02   -0.13378E-02  6234   0.162E-02    0.914E-03
RMM:  16    -0.369131207326E+02   -0.10964E-01   -0.98105E-02  5936   0.173E-02    0.178E-02
RMM:  17    -0.369139934367E+02   -0.87270E-03   -0.33161E-03  6028   0.871E-03    0.186E-02
RMM:  18    -0.369140315521E+02   -0.38115E-04   -0.21470E-04  5931   0.288E-03    0.190E-02
RMM:  19    -0.369140291569E+02    0.23952E-05   -0.23779E-05  5928   0.334E-02    0.860E-03
RMM:  20    -0.369140371027E+02   -0.79458E-05   -0.39202E-05  5930   0.414E-02    0.207E-02
RMM:  21    -0.369140364703E+02    0.63240E-06   -0.79246E-06  5928   0.205E-02    0.837E-03
RMM:  22    -0.369140429805E+02   -0.65103E-05   -0.74372E-06  5928   0.201E-02    0.463E-03
RMM:  23    -0.369140468881E+02   -0.39076E-05   -0.50901E-07  5928   0.520E-03    0.372E-03
RMM:  24    -0.369140475447E+02   -0.65658E-06   -0.33926E-07  5928   0.408E-03    0.339E-03
RMM:  25    -0.369140474704E+02    0.74244E-07   -0.78655E-08  5953   0.230E-03    0.279E-03
RMM:  26    -0.369140472878E+02    0.18265E-06   -0.93067E-09  5987   0.836E-04    0.237E-03
RMM:  27    -0.369140471507E+02    0.13712E-06   -0.26039E-08  5928   0.101E-03    0.196E-03
RMM:  28    -0.369140470598E+02    0.90862E-07   -0.28381E-08  5928   0.107E-03    0.150E-03
RMM:  29    -0.369140470253E+02    0.34515E-07   -0.88248E-09  5949   0.613E-04    0.128E-03
RMM:  30    -0.369140469877E+02    0.37616E-07   -0.11225E-08  5928   0.689E-04    0.972E-04
RMM:  31    -0.369140469475E+02    0.40128E-07   -0.19600E-08  5928   0.905E-04    0.575E-04
RMM:  32    -0.369140469370E+02    0.10554E-07   -0.59211E-09  5971   0.508E-04    0.390E-04
RMM:  33    -0.369140469367E+02    0.33879E-09   -0.23875E-09  5941   0.331E-04    0.259E-04
RMM:  34    -0.369140469362E+02    0.40166E-09   -0.32974E-09  5928   0.382E-04    0.926E-05
WARNING in EDDRMM: call to ZHEGV failed, returncode =   6  3  1
RMM:  35    -0.369140469362E+02    0.59231E-10   -0.76997E-10  5745   0.190E-04
   1 F= -.36914047E+02 E0= -.36914033E+02  d E =-.369140E+02
 BRION: g(F)=  0.525E-06 g(S)=  0.000E+00
 bond charge predicted
       N       E                     dE             d eps       ncg     rms          rms(c)
DAV:   1    -0.369140461537E+02    0.78257E-06   -0.70405E-05  6952   0.788E-02    0.164E-03
RMM:   2    -0.369140461903E+02   -0.36626E-07   -0.11253E-06  5937   0.943E-03    0.118E-03
RMM:   3    -0.369140461538E+02    0.36476E-07   -0.19564E-07  5956   0.356E-03    0.307E-04
RMM:   4    -0.369140461510E+02    0.28746E-08   -0.12420E-08  6087   0.884E-04    0.874E-05
WARNING in EDDRMM: call to ZHEGV failed, returncode =   6  3  2
WARNING in EDDRMM: call to ZHEGV failed, returncode =   6  3  1
WARNING in EDDRMM: call to ZHEGV failed, returncode =   6  3  1
RMM:   5    -0.369140461506E+02    0.35402E-09   -0.86150E-10  5134   0.213E-04    0.393E-05
RMM:   6    -0.369140461504E+02    0.19850E-09   -0.12140E-10  3819   0.942E-05    0.436E-06
RMM:   7    -0.369140461504E+02   -0.44565E-10   -0.11586E-11  3740   0.518E-05
   2 F= -.36914046E+02 E0= -.36914032E+02  d E =0.785743E-06
 BRION: g(F)=  0.822E-05 g(S)=  0.000E+00 retain N=  1 mean eig= 0.20
 eig:   0.202
 bond charge predicted
       N       E                     dE             d eps       ncg     rms          rms(c)
DAV:   1    -0.369140469802E+02   -0.82980E-06   -0.44852E-05  6520   0.629E-02    0.132E-03
RMM:   2    -0.369140470090E+02   -0.28784E-07   -0.70135E-07  5951   0.753E-03    0.941E-04
RMM:   3    -0.369140469902E+02    0.18753E-07   -0.12388E-07  5970   0.283E-03    0.239E-04
RMM:   4    -0.369140469875E+02    0.27660E-08   -0.77455E-09  6059   0.703E-04    0.693E-05
WARNING in EDDRMM: call to ZHEGV failed, returncode =   6  3  1
RMM:   5    -0.369140469880E+02   -0.50682E-09   -0.59967E-10  4700   0.174E-04    0.319E-05
WARNING in EDDRMM: call to ZHEGV failed, returncode =   6  3  1
RMM:   6    -0.369140469880E+02    0.18531E-10   -0.74584E-11  3770   0.812E-05
   3 F= -.36914047E+02 E0= -.36914033E+02  d E =-.837508E-06
 BRION: g(F)=  0.605E-10 g(S)=  0.000E+00 retain N=  1 mean eig= 0.20
 eig:   0.202
 bond charge predicted
       N       E                     dE             d eps       ncg     rms          rms(c)
DAV:   1    -0.369140469875E+02    0.48169E-09    0.54289E-09  6692   0.156E-04    0.268E-06
RMM:   2    -0.369140469880E+02   -0.51011E-09    0.10108E-12  2679   0.228E-05    0.165E-06
RMM:   3    -0.369140469882E+02   -0.17451E-09   -0.17588E-12  2420   0.235E-05    0.168E-07
RMM:   4    -0.369140469881E+02    0.58549E-10    0.93505E-14  2171   0.219E-05    0.218E-07
RMM:   5    -0.369140469883E+02   -0.21623E-09   -0.20602E-12  2044   0.208E-05    0.317E-07
RMM:   6    -0.369140469881E+02    0.23954E-09   -0.31495E-13  1969   0.196E-05    0.508E-07
RMM:   7    -0.369140469878E+02    0.25398E-09    0.69451E-14  1852   0.190E-05    0.766E-07
RMM:   8    -0.369140469881E+02   -0.29956E-09   -0.10597E-12  1803   0.186E-05    0.148E-06
RMM:   9    -0.369140469881E+02    0.32969E-10   -0.31405E-13  1681   0.181E-05
   4 F= -.36914047E+02 E0= -.36914033E+02  d E =-.152227E-09
 BRION: g(F)=  0.242E-10 g(S)=  0.000E+00 retain N=  1 mean eig= 0.12
 eig:   0.124
 bond charge predicted
       N       E                     dE             d eps       ncg     rms          rms(c)
DAV:   1    -0.369140469875E+02    0.58992E-09    0.56619E-09  4952   0.674E-05    0.154E-06
RMM:   2    -0.369140469879E+02   -0.37733E-09   -0.32297E-13  1803   0.168E-05    0.938E-07
RMM:   3    -0.369140469878E+02    0.14597E-09   -0.52176E-13  1612   0.168E-05    0.226E-08
RMM:   4    -0.369140469882E+02   -0.40143E-09    0.65154E-14  1558   0.167E-05    0.134E-08
RMM:   5    -0.369140469880E+02    0.15734E-09   -0.14190E-13  1479   0.167E-05    0.134E-08
RMM:   6    -0.369140469880E+02    0.73442E-10   -0.44837E-13  1333   0.165E-05
   5 F= -.36914047E+02 E0= -.36914033E+02  d E =0.154955E-09
 BRION: g(F)=  0.135E-13 g(S)=  0.000E+00 retain N=  1 mean eig= 0.13
 eig:   0.127
 reached required accuracy - stopping structural energy minimisation
