    4    4  400    1
  0.5270948E+02  0.4317060E-09  0.2462739E-09  0.1983089E-08  0.5000000E-15
  1.000000000000000E-004
  CAR 
 gr                                      
     16    247     12
 
  0.0000000E+00  0.0000000E+00  0.0000000E+00  0.1157407E-02
    1      -22.182930
    2      -17.121678
    3      -15.917869
    4      -10.304322
    5       -9.009676
    6       -5.879586
    7       -5.760552
    8       -5.205229
    9       -1.122785
   10        0.532294
   11        1.332191
   12        1.719268
 
  0.4166667E-01  0.0000000E+00  0.0000000E+00  0.2314815E-02
    1      -22.172886
    2      -17.264707
    3      -15.759691
    4      -10.292355
    5       -8.999798
    6       -5.922993
    7       -5.782070
    8       -5.268429
    9       -1.043690
   10        0.545903
   11        1.345986
   12        1.733232
 
  0.8333333E-01  0.0000000E+00  0.0000000E+00  0.2314815E-02
    1      -22.142757
    2      -17.574424
    3      -15.404607
    4      -10.256474
    5       -8.970214
    6       -6.051307
    7       -5.845464
    8       -5.444423
    9       -0.820176
   10        0.586733
   11        1.387366
   12        1.775125
 
  0.1250000E+00  0.0000000E+00  0.0000000E+00  0.2314815E-02
    1      -22.092564
    2      -17.932047
    3      -14.971644
    4      -10.196734
    5       -8.921079
    6       -6.259159
    7       -5.947439
    8       -5.702521
    9       -0.483431
   10        0.654795
   11        1.456319
   12        1.844950
 
  0.1666667E+00  0.0000000E+00  0.0000000E+00  0.2314815E-02
    1      -22.022341
    2      -18.297332
    3      -14.501468
    4      -10.113235
    5       -8.852652
    6       -6.538607
    7       -6.083076
    8       -6.011640
    9       -0.065377
   10        0.750101
   11        1.552820
   12        1.942707
 
  0.2083333E+00  0.0000000E+00  0.0000000E+00  0.2314815E-02
    1      -21.932138
    2      -18.656663
    3      -14.008299
    4      -10.006117
    5       -8.765310
    6       -6.880254
    7       -6.348141
    8       -6.246476
    9        0.409132
   10        0.872657
   11        1.676832
   12        2.068400
 
  0.2500000E+00  0.0000000E+00  0.0000000E+00  0.2314815E-02
    1      -21.822017
    2      -19.004400
    3      -13.498579
    4       -9.875570
    5       -8.659558
    6       -7.274275
    7       -6.695991
    8       -6.431384
    9        0.922436
   10        1.022456
   11        1.828299
   12        2.222028
 
  0.2916667E+00  0.0000000E+00  0.0000000E+00  0.2314815E-02
    1      -21.692061
    2      -19.337754
    3      -12.976119
    4       -9.721841
    5       -8.536045
    6       -7.711174
    7       -7.044649
    8       -6.631683
    9        1.199477
   10        1.461866
   11        2.007133
   12        2.403590
 
  0.3333333E+00  0.0000000E+00  0.0000000E+00  0.2314815E-02
    1      -21.542368
    2      -19.655140
    3      -12.443782
    4       -9.545242
    5       -8.395582
    6       -8.182240
    7       -7.387141
    8       -6.841708
    9        1.403686
   10        2.017563
   11        2.213188
   12        2.613080
 
  0.3750000E+00  0.0000000E+00  0.0000000E+00  0.2314815E-02
    1      -21.373055
    2      -19.955559
    3      -11.904133
    4       -9.346164
    5       -8.679745
    6       -8.239172
    7       -7.718743
    8       -7.056411
    9        1.635033
   10        2.446203
   11        2.580235
   12        2.850490
 
  0.4166667E+00  0.0000000E+00  0.0000000E+00  0.2314815E-02
    1      -21.184265
    2      -20.238318
    3      -11.359764
    4       -9.196975
    5       -9.125099
    6       -8.068046
    7       -8.036164
    8       -7.271412
    9        1.893450
   10        2.705620
   11        3.115808
   12        3.134296
 
  0.4583333E+00  0.0000000E+00  0.0000000E+00  0.2314815E-02
    1      -20.976166
    2      -20.502915
    3      -10.813471
    4       -9.728167
    5       -8.882666
    6       -8.337043
    7       -7.883700
    8       -7.482973
    9        2.178844
   10        2.830002
   11        2.989918
   12        3.409011
 
  0.5000000E+00  0.0000000E+00  0.0000000E+00  0.1157407E-02
    1      -20.748967
    2      -20.748967
    3      -10.268401
    4      -10.268401
    5       -8.619646
    6       -8.619646
    7       -7.687946
    8       -7.687946
    9        2.491090
   10        2.491090
   11        3.292502
   12        3.292502
 
  0.0000000E+00  0.2777778E-01  0.0000000E+00  0.2314815E-02
    1      -22.169194
    2      -17.109834
    3      -15.906194
    4      -10.287957
    5       -9.071997
    6       -5.908045
    7       -5.818323
    8       -5.188571
    9       -1.126079
   10        0.550919
   11        1.351035
   12        1.738344
 
  0.4166667E-01  0.2777778E-01  0.0000000E+00  0.4629630E-02
    1      -22.159151
    2      -17.252717
    3      -15.748210
    4      -10.275994
    5       -9.062105
    6       -5.954775
    7       -5.835873
    8       -5.251903
    9       -1.046964
   10        0.564528
   11        1.364829
   12        1.752308
 
  0.8333333E-01  0.2777778E-01  0.0000000E+00  0.4629630E-02
    1      -22.129026
    2      -17.562189
    3      -15.393517
    4      -10.240125
    5       -9.032477
    6       -6.086562
    7       -5.893974
    8       -5.428202
    9       -0.823478
   10        0.605359
   11        1.406207
   12        1.794202
 
  0.1250000E+00  0.2777778E-01  0.0000000E+00  0.4629630E-02
    1      -22.078841
    2      -17.919591
    3      -14.961026
    4      -10.180405
    5       -8.983265
    6       -6.294212
    7       -5.993464
    8       -5.686620
    9       -0.486972
   10        0.673423
   11        1.475156
   12        1.864027
 
  0.1666667E+00  0.2777778E-01  0.0000000E+00  0.4629630E-02
    1      -22.008629
    2      -18.284684
    3      -14.491400
    4      -10.096934
    5       -8.914723
    6       -6.570670
    7       -6.128909
    8       -5.995981
    9       -0.069460
   10        0.768734
   11        1.571652
   12        1.961786
 
  0.2083333E+00  0.2777778E-01  0.0000000E+00  0.4629630E-02
    1      -21.918440
    2      -18.643852
    3      -13.998878
    4       -9.989853
    5       -8.827221
    6       -6.907866
    7       -6.332628
    8       -6.293428
    9        0.404183
   10        0.891295
   11        1.695658
   12        2.087480
 
  0.2500000E+00  0.2777778E-01  0.0000000E+00  0.4629630E-02
    1      -21.808337
    2      -18.991449
    3      -13.489918
    4       -9.859351
    5       -8.721254
    6       -7.296919
    7       -6.680539
    8       -6.480081
    9        0.916320
   10        1.041101
   11        1.847119
   12        2.241110
 
  0.2916667E+00  0.2777778E-01  0.0000000E+00  0.4629630E-02
    1      -21.678403
    2      -19.324683
    3      -12.968360
    4       -9.705675
    5       -8.597457
    6       -7.728907
    7       -7.029199
    8       -6.682332
    9        1.218132
   10        1.454321
   11        2.025946
   12        2.422674
 
  0.3333333E+00  0.2777778E-01  0.0000000E+00  0.4629630E-02
    1      -21.528737
    2      -19.641965
    3      -12.437091
    4       -9.529135
    5       -8.456626
    6       -8.195425
    7       -7.371653
    8       -6.894279
    9        1.422351
   10        2.008401
   11        2.231997
   12        2.632168
 
  0.3750000E+00  0.2777778E-01  0.0000000E+00  0.4629630E-02
    1      -21.359456
    2      -19.942293
    3      -11.898714
    4       -9.330125
    5       -8.688878
    6       -8.299747
    7       -7.703192
    8       -7.110749
    9        1.653711
   10        2.465014
   11        2.569473
   12        2.869582
 
  0.4166667E+00  0.2777778E-01  0.0000000E+00  0.4629630E-02
    1      -21.170702
    2      -20.224975
    3      -11.355860
    4       -9.202588
    5       -9.109135
    6       -8.128029
    7       -8.020534
    8       -7.327304
    9        1.912142
   10        2.724446
   11        3.123022
   12        3.134907
 
  0.4583333E+00  0.2777778E-01  0.0000000E+00  0.4629630E-02
    1      -20.962647
    2      -20.489504
    3      -10.811372
    4       -9.730770
    5       -8.866782
    6       -8.321330
    7       -7.942943
    8       -7.540193
    9        2.197554
   10        2.848776
   11        3.008771
   12        3.428120
 
  0.5000000E+00  0.2777778E-01  0.0000000E+00  0.2314815E-02
    1      -20.735498
    2      -20.735498
    3      -10.268452
    4      -10.268452
    5       -8.603846
    6       -8.603846
    7       -7.746277
    8       -7.746277
    9        2.509825
   10        2.509825
   11        3.311232
   12        3.311232
 
  0.0000000E+00  0.5555556E-01  0.0000000E+00  0.2314815E-02
    1      -22.127995
    2      -17.074308
    3      -15.871315
    4      -10.238896
    5       -9.253948
    6       -5.992843
    7       -5.986971
    8       -5.138617
    9       -1.136782
   10        0.606796
   11        1.407561
   12        1.795574
 
  0.4166667E-01  0.5555556E-01  0.0000000E+00  0.4629630E-02
    1      -22.117956
    2      -17.216760
    3      -15.713910
    4      -10.226946
    5       -9.244008
    6       -6.065821
    7       -5.976381
    8       -5.202355
    9       -1.057599
   10        0.620405
   11        1.421353
   12        1.809538
 
  0.8333333E-01  0.5555556E-01  0.0000000E+00  0.4629630E-02
    1      -22.087845
    2      -17.525504
    3      -15.360394
    4      -10.191113
    5       -9.214234
    6       -6.206076
    7       -6.020668
    8       -5.379596
    9       -0.834194
   10        0.661237
   11        1.462723
   12        1.851432
 
  0.1250000E+00  0.5555556E-01  0.0000000E+00  0.4629630E-02
    1      -22.037682
    2      -17.882241
    3      -14.929334
    4      -10.131455
    5       -9.164766
    6       -6.410444
    7       -6.115492
    8       -5.638996
    9       -0.498411
   10        0.729305
   11        1.531660
   12        1.921258
 
  0.1666667E+00  0.5555556E-01  0.0000000E+00  0.4629630E-02
    1      -21.967503
    2      -18.246762
    3      -14.461390
    4      -10.048071
    5       -9.095844
    6       -6.676193
    7       -6.252192
    8       -5.949096
    9       -0.082557
   10        0.824624
   11        1.628139
   12        2.019019
 
  0.2083333E+00  0.5555556E-01  0.0000000E+00  0.4629630E-02
    1      -21.877358
    2      -18.605439
    3      -13.970847
    4       -9.941100
    5       -9.007813
    6       -6.998591
    7       -6.421576
    8       -6.286181
    9        0.388441
   10        0.947198
   11        1.752126
   12        2.144717
 
  0.2500000E+00  0.5555556E-01  0.0000000E+00  0.4629630E-02
    1      -21.767310
    2      -18.952614
    3      -13.464229
    4       -9.810734
    5       -8.901133
    6       -7.371358
    7       -6.634278
    8       -6.614874
    9        0.897005
   10        1.097022
   11        1.903565
   12        2.298352
 
  0.2916667E+00  0.5555556E-01  0.0000000E+00  0.4629630E-02
    1      -21.637444
    2      -19.285485
    3      -12.945449
    4       -9.657217
    5       -8.776398
    6       -7.787319
    7       -6.982940
    8       -6.824269
    9        1.274075
   10        1.430629
   11        2.082372
   12        2.479923
 
  0.3333333E+00  0.5555556E-01  0.0000000E+00  0.4629630E-02
    1      -21.487857
    2      -19.602454
    3      -12.417491
    4       -9.480861
    5       -8.634353
    6       -8.239059
    7       -7.325274
    8       -7.043088
    9        1.478321
   10        1.979737
   11        2.288411
   12        2.689426
 
  0.3750000E+00  0.5555556E-01  0.0000000E+00  0.4629630E-02
    1      -21.318670
    2      -19.902512
    3      -11.883069
    4       -9.282057
    5       -8.719422
    6       -8.475922
    7       -7.656616
    8       -7.265759
    9        1.709711
   10        2.521433
   11        2.535774
   12        2.926853
 
  0.4166667E+00  0.5555556E-01  0.0000000E+00  0.4629630E-02
    1      -21.130028
    2      -20.184960
    3      -11.344946
    4       -9.221827
    5       -9.061294
    6       -8.302236
    7       -7.973719
    8       -7.487690
    9        1.968176
   10        2.780908
   11        3.086856
   12        3.192194
 
  0.4583333E+00  0.5555556E-01  0.0000000E+00  0.4629630E-02
    1      -20.922102
    2      -20.449287
    3      -10.806125
    4       -9.740396
    5       -8.819185
    6       -8.274255
    7       -8.114684
    8       -7.705117
    9        2.253628
   10        2.904993
   11        3.065322
   12        3.485434
 
  0.5000000E+00  0.5555556E-01  0.0000000E+00  0.2314815E-02
    1      -20.695105
    2      -20.695105
    3      -10.269984
    4      -10.269984
    5       -8.556508
    6       -8.556508
    7       -7.914955
    8       -7.914955
    9        2.565954
   10        2.565954
   11        3.367354
   12        3.367354
 
  0.0000000E+00  0.8333333E-01  0.0000000E+00  0.2314815E-02
    1      -22.059368
    2      -17.015109
    3      -15.813698
    4      -10.157243
    5       -9.541888
    6       -6.253936
    7       -6.132253
    8       -5.055429
    9       -1.157359
   10        0.699930
   11        1.501747
   12        1.890958
 
  0.4166667E-01  0.8333333E-01  0.0000000E+00  0.4629630E-02
    1      -22.049336
    2      -17.156871
    3      -15.657244
    4      -10.145313
    5       -9.531852
    6       -6.306228
    7       -6.139325
    8       -5.119887
    9       -1.078043
   10        0.713538
   11        1.515534
   12        1.904922
 
  0.8333333E-01  0.8333333E-01  0.0000000E+00  0.4629630E-02
    1      -22.019248
    2      -17.464428
    3      -15.305706
    4      -10.109544
    5       -9.501784
    6       -6.439190
    7       -6.182323
    8       -5.298781
    9       -0.854743
   10        0.754367
   11        1.556891
   12        1.946816
 
  0.1250000E+00  0.8333333E-01  0.0000000E+00  0.4629630E-02
    1      -21.969124
    2      -17.820061
    3      -14.877096
    4      -10.049992
    5       -9.451806
    6       -6.632668
    7       -6.275201
    8       -5.559891
    9       -0.520189
   10        0.822434
   11        1.625804
   12        2.016642
 
  0.1666667E+00  0.8333333E-01  0.0000000E+00  0.4629630E-02
    1      -21.899001
    2      -18.183628
    3      -14.412061
    4       -9.966756
    5       -9.382124
    6       -6.879527
    7       -6.415390
    8       -5.871264
    9       -0.107189
   10        0.917755
   11        1.722253
   12        2.114405
 
  0.2083333E+00  0.8333333E-01  0.0000000E+00  0.4629630E-02
    1      -21.808928
    2      -18.541483
    3      -13.924972
    4       -9.859976
    5       -9.293033
    6       -7.176007
    7       -6.594363
    8       -6.209094
    9        0.359242
   10        1.040338
   11        1.846202
   12        2.240107
 
  0.2500000E+00  0.8333333E-01  0.0000000E+00  0.4629630E-02
    1      -21.698972
    2      -18.887952
    3      -13.422470
    4       -9.729842
    5       -9.184930
    6       -7.518938
    7       -6.801513
    8       -6.557497
    9        0.861639
   10        1.190178
   11        1.997599
   12        2.393748
 
  0.2916667E+00  0.8333333E-01  0.0000000E+00  0.4629630E-02
    1      -21.569218
    2      -19.220213
    3      -12.908615
    4       -9.576600
    5       -9.058321
    6       -7.904484
    7       -7.026506
    8       -6.906149
    9        1.367253
   10        1.387692
   11        2.176367
   12        2.575328
 
  0.3333333E+00  0.8333333E-01  0.0000000E+00  0.4629630E-02
    1      -21.419764
    2      -19.536657
    3      -12.386571
    4       -9.400559
    5       -8.913843
    6       -8.327679
    7       -7.260617
    8       -7.248264
    9        1.571527
   10        1.928135
   11        2.382378
   12        2.784842
 
  0.3750000E+00  0.8333333E-01  0.0000000E+00  0.4629630E-02
    1      -21.250736
    2      -19.836260
    3      -11.859275
    4       -9.202110
    5       -8.782672
    6       -8.752280
    7       -7.579258
    8       -7.497080
    9        1.802946
   10        2.475096
   11        2.615406
   12        3.022284
 
  0.4166667E+00  0.8333333E-01  0.0000000E+00  0.4629630E-02
    1      -21.062279
    2      -20.118315
    3      -11.329763
    4       -9.263286
    5       -8.981738
    6       -8.574595
    7       -7.895942
    8       -7.730825
    9        2.061443
   10        2.874956
   11        3.019584
   12        3.287644
 
  0.4583333E+00  0.8333333E-01  0.0000000E+00  0.4629630E-02
    1      -20.854572
    2      -20.382303
    3      -10.801365
    4       -9.763517
    5       -8.740052
    6       -8.381969
    7       -8.196026
    8       -7.958050
    9        2.346933
   10        2.998416
   11        3.159547
   12        3.523769
 
  0.5000000E+00  0.8333333E-01  0.0000000E+00  0.2314815E-02
    1      -20.627827
    2      -20.627827
    3      -10.277847
    4      -10.277847
    5       -8.477821
    6       -8.477821
    7       -8.175854
    8       -8.175854
    9        2.659305
   10        2.659305
   11        3.460539
   12        3.460539
 
  0.0000000E+00  0.1111111E+00  0.0000000E+00  0.2314815E-02
    1      -21.963374
    2      -16.932260
    3      -15.734224
    4      -10.043173
    5       -9.916844
    6       -6.602092
    7       -6.323454
    8       -4.939114
    9       -1.191899
   10        0.830327
   11        1.633554
   12        2.024500
 
  0.4166667E-01  0.1111111E+00  0.0000000E+00  0.4629630E-02
    1      -21.953353
    2      -17.073114
    3      -15.579074
    4      -10.031274
    5       -9.906638
    6       -6.649354
    7       -6.331589
    8       -5.004673
    9       -1.112339
   10        0.843930
   11        1.647333
   12        2.038463
 
  0.8333333E-01  0.1111111E+00  0.0000000E+00  0.4629630E-02
    1      -21.923297
    2      -17.379062
    3      -15.230348
    4       -9.995597
    5       -9.876049
    6       -6.776179
    7       -6.369398
    8       -5.186079
    9       -0.889107
   10        0.884749
   11        1.688667
   12        2.080356
 
  0.1250000E+00  0.1111111E+00  0.0000000E+00  0.4629630E-02
    1      -21.873228
    2      -17.733167
    3      -14.805327
    4       -9.936200
    5       -9.825163
    6       -6.961203
    7       -6.453615
    8       -5.449749
    9       -0.556298
   10        0.952800
   11        1.757544
   12        2.150180
 
  0.1666667E+00  0.1111111E+00  0.0000000E+00  0.4629630E-02
    1      -21.803182
    2      -18.095393
    3      -14.344633
    4       -9.853180
    5       -9.754126
    6       -7.191998
    7       -6.589075
    8       -5.762993
    9       -0.147465
   10        1.048106
   11        1.853941
   12        2.247942
 
  0.2083333E+00  0.1111111E+00  0.0000000E+00  0.4629630E-02
    1      -21.713212
    2      -18.452088
    3      -13.862769
    4       -9.746678
    5       -9.663142
    6       -7.462266
    7       -6.771920
    8       -6.101894
    9        0.312271
   10        1.170679
   11        1.977827
   12        2.373644
 
  0.2500000E+00  0.1111111E+00  0.0000000E+00  0.4629630E-02
    1      -21.603386
    2      -18.797557
    3      -13.366576
    4       -9.616885
    5       -9.552482
    6       -7.769275
    7       -6.992865
    8       -6.450713
    9        0.805627
   10        1.320516
   11        2.129152
   12        2.527289
 
  0.2916667E+00  0.1111111E+00  0.0000000E+00  0.4629630E-02
    1      -21.473787
    2      -19.128956
    3      -12.860371
    4       -9.464046
    5       -9.422482
    6       -8.112287
    7       -7.239668
    8       -6.799318
    9        1.320573
   10        1.497597
   11        2.307846
   12        2.708876
 
  0.3333333E+00  0.1111111E+00  0.0000000E+00  0.4629630E-02
    1      -21.324522
    2      -19.444656
    3      -12.347649
    4       -9.288469
    5       -9.273550
    6       -8.490900
    7       -7.499690
    8       -7.141083
    9        1.701882
   10        1.848219
   11        2.513799
   12        2.918400
 
  0.3750000E+00  0.1111111E+00  0.0000000E+00  0.4629630E-02
    1      -21.155717
    2      -19.743616
    3      -11.831767
    4       -9.106177
    5       -9.090542
    6       -8.903491
    7       -7.762162
    8       -7.471543
    9        1.933314
   10        2.381369
   11        2.746817
   12        3.155856
 
  0.4166667E+00  0.1111111E+00  0.0000000E+00  0.4629630E-02
    1      -20.967522
    2      -20.025116
    3      -11.316288
    4       -9.346524
    5       -8.920946
    6       -8.870746
    7       -8.019323
    8       -7.787593
    9        2.191822
   10        2.913185
   11        3.006478
   12        3.421234
 
  0.4583333E+00  0.1111111E+00  0.0000000E+00  0.4629630E-02
    1      -20.760121
    2      -20.288625
    3      -10.805199
    4       -9.814941
    5       -8.718562
    6       -8.629684
    7       -8.266232
    8       -8.087000
    9        2.477318
   10        3.128812
   11        3.291393
   12        3.431011
 
  0.5000000E+00  0.1111111E+00  0.0000000E+00  0.2314815E-02
    1      -20.533734
    2      -20.533734
    3      -10.303038
    4      -10.303038
    5       -8.499920
    6       -8.499920
    7       -8.368114
    8       -8.368114
    9        2.789694
   10        2.789694
   11        3.589183
   12        3.589183
 
  0.0000000E+00  0.1388889E+00  0.0000000E+00  0.2314815E-02
    1      -21.840100
    2      -16.825790
    3      -15.634382
    4      -10.357925
    5       -9.896940
    6       -7.013250
    7       -6.562634
    8       -4.789822
    9       -1.246021
   10        0.997985
   11        1.802924
   12        2.196201
 
  0.4166667E-01  0.1388889E+00  0.0000000E+00  0.4629630E-02
    1      -21.830093
    2      -16.965588
    3      -15.480864
    4      -10.347429
    5       -9.885084
    6       -7.059968
    7       -6.566629
    8       -4.856989
    9       -1.166019
   10        1.011580
   11        1.816692
   12        2.210163
 
  0.8333333E-01  0.1388889E+00  0.0000000E+00  0.4629630E-02
    1      -21.800079
    2      -17.269569
    3      -15.135864
    4      -10.315946
    5       -9.849533
    6       -7.186324
    7       -6.591457
    8       -5.042006
    9       -0.942672
   10        1.052375
   11        1.857990
   12        2.252051
 
  0.1250000E+00  0.1388889E+00  0.0000000E+00  0.4629630E-02
    1      -21.750080
    2      -17.621732
    3      -14.715810
    4      -10.263497
    5       -9.790346
    6       -7.369309
    7       -6.657141
    8       -5.309280
    9       -0.612089
   10        1.120390
   11        1.926806
   12        2.321870
 
  0.1666667E+00  0.1388889E+00  0.0000000E+00  0.4629630E-02
    1      -21.680136
    2      -17.982227
    3      -14.261290
    4      -10.190112
    5       -9.707620
    6       -7.592880
    7       -6.774440
    8       -5.625090
    9       -0.208846
   10        1.215653
   11        2.023120
   12        2.419626
 
  0.2083333E+00  0.1388889E+00  0.0000000E+00  0.4629630E-02
    1      -21.590298
    2      -18.337413
    3      -13.787023
    4      -10.095819
    5       -9.601499
    6       -7.847617
    7       -6.945087
    8       -5.965407
    9        0.241846
   10        1.338184
   11        2.146899
   12        2.545324
 
  0.2500000E+00  0.1388889E+00  0.0000000E+00  0.4629630E-02
    1      -21.480637
    2      -18.681577
    3      -13.300189
    4       -9.980631
    5       -9.472171
    6       -8.128436
    7       -7.164312
    8       -6.314729
    9        0.722997
   10        1.487986
   11        2.298098
   12        2.698967
 
  0.2916667E+00  0.1388889E+00  0.0000000E+00  0.4629630E-02
    1      -21.351243
    2      -19.011849
    3      -12.805583
    4       -9.844527
    5       -9.319883
    6       -8.433504
    7       -7.422565
    8       -6.663204
    9        1.222976
   10        1.665040
   11        2.476655
   12        2.880556
 
  0.3333333E+00  0.1388889E+00  0.0000000E+00  0.4629630E-02
    1      -21.202221
    2      -19.326577
    3      -12.307329
    4       -9.687426
    5       -9.144941
    6       -8.763585
    7       -7.706995
    8       -7.004433
    9        1.733345
   10        1.869304
   11        2.682479
   12        3.090086
 
  0.3750000E+00  0.1388889E+00  0.0000000E+00  0.4629630E-02
    1      -21.033704
    2      -19.624697
    3      -11.809611
    4       -9.509157
    5       -9.121045
    6       -8.947731
    7       -8.003260
    8       -7.334117
    9        2.100716
   10        2.247516
   11        2.915426
   12        3.327552
 
  0.4166667E+00  0.1388889E+00  0.0000000E+00  0.4629630E-02
    1      -20.845850
    2      -19.905473
    3      -11.317047
    4       -9.508114
    5       -9.309455
    6       -8.728729
    7       -8.297866
    8       -7.649263
    9        2.359199
   10        2.759908
   11        3.175202
   12        3.592943
 
  0.4583333E+00  0.1388889E+00  0.0000000E+00  0.4629630E-02
    1      -20.638848
    2      -20.168356
    3      -10.834871
    4       -9.924968
    5       -9.088019
    6       -8.580447
    7       -8.488530
    8       -7.947717
    9        2.644655
   10        3.264911
   11        3.296010
   12        3.460724
 
  0.5000000E+00  0.1388889E+00  0.0000000E+00  0.2314815E-02
    1      -20.412926
    2      -20.412926
    3      -10.368879
    4      -10.368879
    5       -8.844761
    6       -8.844761
    7       -8.227878
    8       -8.227878
    9        2.956973
   10        2.956973
   11        3.716272
   12        3.716274
 
  0.0000000E+00  0.1666667E+00  0.0000000E+00  0.2314815E-02
    1      -21.689664
    2      -16.695737
    3      -15.516664
    4      -10.844500
    5       -9.718885
    6       -7.470550
    7       -6.845144
    8       -4.607753
    9       -1.326624
   10        1.202889
   11        2.009776
   12        2.406063
 
  0.4166667E-01  0.1666667E+00  0.0000000E+00  0.4629630E-02
    1      -21.679674
    2      -16.834440
    3      -15.365090
    4      -10.833503
    5       -9.707083
    6       -7.518180
    7       -6.843079
    8       -4.677242
    9       -1.245804
   10        1.216471
   11        2.023524
   12        2.420023
 
  0.8333333E-01  0.1666667E+00  0.0000000E+00  0.4629630E-02
    1      -21.649712
    2      -17.136190
    3      -15.024916
    4      -10.800479
    5       -9.671698
    6       -7.646956
    7       -6.850597
    8       -4.867371
    9       -1.021848
   10        1.257228
   11        2.064764
   12        2.461905
 
  0.1250000E+00  0.1666667E+00  0.0000000E+00  0.4629630E-02
    1      -21.599801
    2      -17.486021
    3      -14.611698
    4      -10.745313
    5       -9.612787
    6       -7.831918
    7       -6.891226
    8       -5.139585
    9       -0.693815
   10        1.325184
   11        2.133482
   12        2.531713
 
  0.1666667E+00  0.1666667E+00  0.0000000E+00  0.4629630E-02
    1      -21.529980
    2      -17.844381
    3      -14.166009
    4      -10.667793
    5       -9.530450
    6       -8.054451
    7       -6.980587
    8       -5.458783
    9       -0.297625
   10        1.420369
   11        2.229655
   12        2.629455
 
  0.2083333E+00  0.1666667E+00  0.0000000E+00  0.4629630E-02
    1      -21.440304
    2      -18.197688
    3      -13.702954
    4      -10.567570
    5       -9.424829
    6       -8.302977
    7       -7.125170
    8       -5.800875
    9        0.141514
   10        1.542815
   11        2.353249
   12        2.755139
 
  0.2500000E+00  0.1666667E+00  0.0000000E+00  0.4629630E-02
    1      -21.330848
    2      -18.540219
    3      -13.230375
    4      -10.444098
    5       -9.296116
    6       -8.570439
    7       -7.324649
    8       -6.150736
    9        0.607108
   10        1.692533
   11        2.504216
   12        2.908770
 
  0.2916667E+00  0.1666667E+00  0.0000000E+00  0.4629630E-02
    1      -21.201703
    2      -18.869082
    3      -12.754007
    4      -10.296555
    5       -9.144555
    6       -8.852880
    7       -7.573568
    8       -6.498916
    9        1.088114
   10        1.869511
   11        2.682494
   12        3.090353
 
  0.3333333E+00  0.1666667E+00  0.0000000E+00  0.4629630E-02
    1      -21.052982
    2      -19.182593
    3      -12.279260
    4      -10.123757
    5       -9.148922
    6       -8.970456
    7       -7.862532
    8       -6.839331
    9        1.576686
   10        2.073708
   11        2.888001
   12        3.299882
 
  0.3750000E+00  0.1666667E+00  0.0000000E+00  0.4629630E-02
    1      -20.884823
    2      -19.479664
    3      -11.811949
    4       -9.924121
    5       -9.459639
    6       -8.774199
    7       -8.179166
    8       -7.167904
    9        2.066863
   10        2.305057
   11        3.120631
   12        3.537352
 
  0.4166667E+00  0.1666667E+00  0.0000000E+00  0.4629630E-02
    1      -20.697392
    2      -19.759535
    3      -11.358498
    4       -9.788373
    5       -9.695835
    6       -8.556257
    7       -8.509056
    8       -7.481791
    9        2.553829
   10        2.563467
   11        3.380245
   12        3.802752
 
  0.4583333E+00  0.1666667E+00  0.0000000E+00  0.4629630E-02
    1      -20.490885
    2      -20.021640
    3      -10.925509
    4      -10.139890
    5       -9.437533
    6       -8.837114
    7       -8.317215
    8       -7.778935
    9        2.848832
   10        3.033490
   11        3.499889
   12        3.666636
 
  0.5000000E+00  0.1666667E+00  0.0000000E+00  0.2314815E-02
    1      -20.265540
    2      -20.265540
    3      -10.518464
    4      -10.518464
    5       -9.149790
    6       -9.149790
    7       -8.057801
    8       -8.057801
    9        3.161024
   10        3.161024
   11        3.502181
   12        3.502181
 