<?xml version="1.0" encoding="ISO-8859-1"?>
<modeling>
 <generator>
  <i name="program" type="string">vasp </i>
  <i name="version" type="string">5.3.5  </i>
  <i name="subversion" type="string">31Mar14 (build Mar 02 2015 18:14:16) complex                          parallel </i>
  <i name="platform" type="string">LinuxIFC </i>
  <i name="date" type="string">2018 08 07 </i>
  <i name="time" type="string">16:37:12 </i>
 </generator>
 <incar>
  <i type="string" name="SYSTEM">  gr</i>
  <i type="string" name="PREC">accurate : accuracy</i>
  <i type="string" name="ALGO"> FAST.</i>
  <i type="int" name="NELM">   100</i>
  <i type="int" name="NELMDL">    -3</i>
  <i type="int" name="NELMIN">     5</i>
  <i type="int" name="IBRION">     1</i>
  <i name="EDIFF">      0.00000000</i>
  <i name="EDIFFG">     -0.00000100</i>
  <i type="int" name="NSW">   400</i>
  <i type="int" name="ISIF">     2</i>
  <i name="ENCUT">   2000.00000000</i>
  <i type="int" name="ISMEAR">     0</i>
  <i name="SIGMA">      0.05000000</i>
  <i type="int" name="NWRITE">     2</i>
  <i type="logical" name="LWAVE"> F  </i>
  <i type="logical" name="LCHARG"> F  </i>
  <i type="int" name="NELM">   100</i>
 </incar>
 <kpoints>
  <generation param="Gamma">
   <v type="int" name="divisions">      24       36        1 </v>
   <v name="usershift">      0.00000000       0.00000000       0.00000000 </v>
   <v name="genvec1">      0.04166667       0.00000000       0.00000000 </v>
   <v name="genvec2">      0.00000000       0.02777778       0.00000000 </v>
   <v name="genvec3">      0.00000000       0.00000000       1.00000000 </v>
   <v name="shift">      0.00000000       0.00000000       0.00000000 </v>
  </generation>
  <varray name="kpointlist" >
   <v>       0.00000000       0.00000000       0.00000000 </v>
   <v>       0.04166667       0.00000000       0.00000000 </v>
   <v>       0.08333333       0.00000000       0.00000000 </v>
   <v>       0.12500000       0.00000000       0.00000000 </v>
   <v>       0.16666667       0.00000000       0.00000000 </v>
   <v>       0.20833333       0.00000000       0.00000000 </v>
   <v>       0.25000000       0.00000000       0.00000000 </v>
   <v>       0.29166667       0.00000000       0.00000000 </v>
   <v>       0.33333333       0.00000000       0.00000000 </v>
   <v>       0.37500000       0.00000000       0.00000000 </v>
   <v>       0.41666667       0.00000000       0.00000000 </v>
   <v>       0.45833333       0.00000000       0.00000000 </v>
   <v>       0.50000000       0.00000000       0.00000000 </v>
   <v>       0.00000000       0.02777778       0.00000000 </v>
   <v>       0.04166667       0.02777778       0.00000000 </v>
   <v>       0.08333333       0.02777778       0.00000000 </v>
   <v>       0.12500000       0.02777778       0.00000000 </v>
   <v>       0.16666667       0.02777778       0.00000000 </v>
   <v>       0.20833333       0.02777778       0.00000000 </v>
   <v>       0.25000000       0.02777778       0.00000000 </v>
   <v>       0.29166667       0.02777778       0.00000000 </v>
   <v>       0.33333333       0.02777778       0.00000000 </v>
   <v>       0.37500000       0.02777778       0.00000000 </v>
   <v>       0.41666667       0.02777778       0.00000000 </v>
   <v>       0.45833333       0.02777778       0.00000000 </v>
   <v>       0.50000000       0.02777778       0.00000000 </v>
   <v>       0.00000000       0.05555556       0.00000000 </v>
   <v>       0.04166667       0.05555556       0.00000000 </v>
   <v>       0.08333333       0.05555556       0.00000000 </v>
   <v>       0.12500000       0.05555556       0.00000000 </v>
   <v>       0.16666667       0.05555556       0.00000000 </v>
   <v>       0.20833333       0.05555556       0.00000000 </v>
   <v>       0.25000000       0.05555556       0.00000000 </v>
   <v>       0.29166667       0.05555556       0.00000000 </v>
   <v>       0.33333333       0.05555556       0.00000000 </v>
   <v>       0.37500000       0.05555556       0.00000000 </v>
   <v>       0.41666667       0.05555556       0.00000000 </v>
   <v>       0.45833333       0.05555556       0.00000000 </v>
   <v>       0.50000000       0.05555556       0.00000000 </v>
   <v>       0.00000000       0.08333333       0.00000000 </v>
   <v>       0.04166667       0.08333333       0.00000000 </v>
   <v>       0.08333333       0.08333333       0.00000000 </v>
   <v>       0.12500000       0.08333333       0.00000000 </v>
   <v>       0.16666667       0.08333333       0.00000000 </v>
   <v>       0.20833333       0.08333333       0.00000000 </v>
   <v>       0.25000000       0.08333333       0.00000000 </v>
   <v>       0.29166667       0.08333333       0.00000000 </v>
   <v>       0.33333333       0.08333333       0.00000000 </v>
   <v>       0.37500000       0.08333333       0.00000000 </v>
   <v>       0.41666667       0.08333333       0.00000000 </v>
   <v>       0.45833333       0.08333333       0.00000000 </v>
   <v>       0.50000000       0.08333333       0.00000000 </v>
   <v>       0.00000000       0.11111111       0.00000000 </v>
   <v>       0.04166667       0.11111111       0.00000000 </v>
   <v>       0.08333333       0.11111111       0.00000000 </v>
   <v>       0.12500000       0.11111111       0.00000000 </v>
   <v>       0.16666667       0.11111111       0.00000000 </v>
   <v>       0.20833333       0.11111111       0.00000000 </v>
   <v>       0.25000000       0.11111111       0.00000000 </v>
   <v>       0.29166667       0.11111111       0.00000000 </v>
   <v>       0.33333333       0.11111111       0.00000000 </v>
   <v>       0.37500000       0.11111111       0.00000000 </v>
   <v>       0.41666667       0.11111111       0.00000000 </v>
   <v>       0.45833333       0.11111111       0.00000000 </v>
   <v>       0.50000000       0.11111111       0.00000000 </v>
   <v>       0.00000000       0.13888889       0.00000000 </v>
   <v>       0.04166667       0.13888889       0.00000000 </v>
   <v>       0.08333333       0.13888889       0.00000000 </v>
   <v>       0.12500000       0.13888889       0.00000000 </v>
   <v>       0.16666667       0.13888889       0.00000000 </v>
   <v>       0.20833333       0.13888889       0.00000000 </v>
   <v>       0.25000000       0.13888889       0.00000000 </v>
   <v>       0.29166667       0.13888889       0.00000000 </v>
   <v>       0.33333333       0.13888889       0.00000000 </v>
   <v>       0.37500000       0.13888889       0.00000000 </v>
   <v>       0.41666667       0.13888889       0.00000000 </v>
   <v>       0.45833333       0.13888889       0.00000000 </v>
   <v>       0.50000000       0.13888889       0.00000000 </v>
   <v>       0.00000000       0.16666667       0.00000000 </v>
   <v>       0.04166667       0.16666667       0.00000000 </v>
   <v>       0.08333333       0.16666667       0.00000000 </v>
   <v>       0.12500000       0.16666667       0.00000000 </v>
   <v>       0.16666667       0.16666667       0.00000000 </v>
   <v>       0.20833333       0.16666667       0.00000000 </v>
   <v>       0.25000000       0.16666667       0.00000000 </v>
   <v>       0.29166667       0.16666667       0.00000000 </v>
   <v>       0.33333333       0.16666667       0.00000000 </v>
   <v>       0.37500000       0.16666667       0.00000000 </v>
   <v>       0.41666667       0.16666667       0.00000000 </v>
   <v>       0.45833333       0.16666667       0.00000000 </v>
   <v>       0.50000000       0.16666667       0.00000000 </v>
   <v>       0.00000000       0.19444444       0.00000000 </v>
   <v>       0.04166667       0.19444444       0.00000000 </v>
   <v>       0.08333333       0.19444444       0.00000000 </v>
   <v>       0.12500000       0.19444444       0.00000000 </v>
   <v>       0.16666667       0.19444444       0.00000000 </v>
   <v>       0.20833333       0.19444444       0.00000000 </v>
   <v>       0.25000000       0.19444444       0.00000000 </v>
   <v>       0.29166667       0.19444444       0.00000000 </v>
   <v>       0.33333333       0.19444444       0.00000000 </v>
   <v>       0.37500000       0.19444444       0.00000000 </v>
   <v>       0.41666667       0.19444444       0.00000000 </v>
   <v>       0.45833333       0.19444444       0.00000000 </v>
   <v>       0.50000000       0.19444444       0.00000000 </v>
   <v>       0.00000000       0.22222222       0.00000000 </v>
   <v>       0.04166667       0.22222222       0.00000000 </v>
   <v>       0.08333333       0.22222222       0.00000000 </v>
   <v>       0.12500000       0.22222222       0.00000000 </v>
   <v>       0.16666667       0.22222222       0.00000000 </v>
   <v>       0.20833333       0.22222222       0.00000000 </v>
   <v>       0.25000000       0.22222222       0.00000000 </v>
   <v>       0.29166667       0.22222222       0.00000000 </v>
   <v>       0.33333333       0.22222222       0.00000000 </v>
   <v>       0.37500000       0.22222222       0.00000000 </v>
   <v>       0.41666667       0.22222222       0.00000000 </v>
   <v>       0.45833333       0.22222222       0.00000000 </v>
   <v>       0.50000000       0.22222222       0.00000000 </v>
   <v>       0.00000000       0.25000000       0.00000000 </v>
   <v>       0.04166667       0.25000000       0.00000000 </v>
   <v>       0.08333333       0.25000000       0.00000000 </v>
   <v>       0.12500000       0.25000000       0.00000000 </v>
   <v>       0.16666667       0.25000000       0.00000000 </v>
   <v>       0.20833333       0.25000000       0.00000000 </v>
   <v>       0.25000000       0.25000000       0.00000000 </v>
   <v>       0.29166667       0.25000000       0.00000000 </v>
   <v>       0.33333333       0.25000000       0.00000000 </v>
   <v>       0.37500000       0.25000000       0.00000000 </v>
   <v>       0.41666667       0.25000000       0.00000000 </v>
   <v>       0.45833333       0.25000000       0.00000000 </v>
   <v>       0.50000000       0.25000000       0.00000000 </v>
   <v>       0.00000000       0.27777778       0.00000000 </v>
   <v>       0.04166667       0.27777778       0.00000000 </v>
   <v>       0.08333333       0.27777778       0.00000000 </v>
   <v>       0.12500000       0.27777778       0.00000000 </v>
   <v>       0.16666667       0.27777778       0.00000000 </v>
   <v>       0.20833333       0.27777778       0.00000000 </v>
   <v>       0.25000000       0.27777778       0.00000000 </v>
   <v>       0.29166667       0.27777778       0.00000000 </v>
   <v>       0.33333333       0.27777778       0.00000000 </v>
   <v>       0.37500000       0.27777778       0.00000000 </v>
   <v>       0.41666667       0.27777778       0.00000000 </v>
   <v>       0.45833333       0.27777778       0.00000000 </v>
   <v>       0.50000000       0.27777778       0.00000000 </v>
   <v>       0.00000000       0.30555556       0.00000000 </v>
   <v>       0.04166667       0.30555556       0.00000000 </v>
   <v>       0.08333333       0.30555556       0.00000000 </v>
   <v>       0.12500000       0.30555556       0.00000000 </v>
   <v>       0.16666667       0.30555556       0.00000000 </v>
   <v>       0.20833333       0.30555556       0.00000000 </v>
   <v>       0.25000000       0.30555556       0.00000000 </v>
   <v>       0.29166667       0.30555556       0.00000000 </v>
   <v>       0.33333333       0.30555556       0.00000000 </v>
   <v>       0.37500000       0.30555556       0.00000000 </v>
   <v>       0.41666667       0.30555556       0.00000000 </v>
   <v>       0.45833333       0.30555556       0.00000000 </v>
   <v>       0.50000000       0.30555556       0.00000000 </v>
   <v>       0.00000000       0.33333333       0.00000000 </v>
   <v>       0.04166667       0.33333333       0.00000000 </v>
   <v>       0.08333333       0.33333333       0.00000000 </v>
   <v>       0.12500000       0.33333333       0.00000000 </v>
   <v>       0.16666667       0.33333333       0.00000000 </v>
   <v>       0.20833333       0.33333333       0.00000000 </v>
   <v>       0.25000000       0.33333333       0.00000000 </v>
   <v>       0.29166667       0.33333333       0.00000000 </v>
   <v>       0.33333333       0.33333333       0.00000000 </v>
   <v>       0.37500000       0.33333333       0.00000000 </v>
   <v>       0.41666667       0.33333333       0.00000000 </v>
   <v>       0.45833333       0.33333333       0.00000000 </v>
   <v>       0.50000000       0.33333333       0.00000000 </v>
   <v>       0.00000000       0.36111111       0.00000000 </v>
   <v>       0.04166667       0.36111111       0.00000000 </v>
   <v>       0.08333333       0.36111111       0.00000000 </v>
   <v>       0.12500000       0.36111111       0.00000000 </v>
   <v>       0.16666667       0.36111111       0.00000000 </v>
   <v>       0.20833333       0.36111111       0.00000000 </v>
   <v>       0.25000000       0.36111111       0.00000000 </v>
   <v>       0.29166667       0.36111111       0.00000000 </v>
   <v>       0.33333333       0.36111111       0.00000000 </v>
   <v>       0.37500000       0.36111111       0.00000000 </v>
   <v>       0.41666667       0.36111111       0.00000000 </v>
   <v>       0.45833333       0.36111111       0.00000000 </v>
   <v>       0.50000000       0.36111111       0.00000000 </v>
   <v>       0.00000000       0.38888889       0.00000000 </v>
   <v>       0.04166667       0.38888889       0.00000000 </v>
   <v>       0.08333333       0.38888889       0.00000000 </v>
   <v>       0.12500000       0.38888889       0.00000000 </v>
   <v>       0.16666667       0.38888889       0.00000000 </v>
   <v>       0.20833333       0.38888889       0.00000000 </v>
   <v>       0.25000000       0.38888889       0.00000000 </v>
   <v>       0.29166667       0.38888889       0.00000000 </v>
   <v>       0.33333333       0.38888889       0.00000000 </v>
   <v>       0.37500000       0.38888889       0.00000000 </v>
   <v>       0.41666667       0.38888889       0.00000000 </v>
   <v>       0.45833333       0.38888889       0.00000000 </v>
   <v>       0.50000000       0.38888889       0.00000000 </v>
   <v>       0.00000000       0.41666667       0.00000000 </v>
   <v>       0.04166667       0.41666667       0.00000000 </v>
   <v>       0.08333333       0.41666667       0.00000000 </v>
   <v>       0.12500000       0.41666667       0.00000000 </v>
   <v>       0.16666667       0.41666667       0.00000000 </v>
   <v>       0.20833333       0.41666667       0.00000000 </v>
   <v>       0.25000000       0.41666667       0.00000000 </v>
   <v>       0.29166667       0.41666667       0.00000000 </v>
   <v>       0.33333333       0.41666667       0.00000000 </v>
   <v>       0.37500000       0.41666667       0.00000000 </v>
   <v>       0.41666667       0.41666667       0.00000000 </v>
   <v>       0.45833333       0.41666667       0.00000000 </v>
   <v>       0.50000000       0.41666667       0.00000000 </v>
   <v>       0.00000000       0.44444444       0.00000000 </v>
   <v>       0.04166667       0.44444444       0.00000000 </v>
   <v>       0.08333333       0.44444444       0.00000000 </v>
   <v>       0.12500000       0.44444444       0.00000000 </v>
   <v>       0.16666667       0.44444444       0.00000000 </v>
   <v>       0.20833333       0.44444444       0.00000000 </v>
   <v>       0.25000000       0.44444444       0.00000000 </v>
   <v>       0.29166667       0.44444444       0.00000000 </v>
   <v>       0.33333333       0.44444444       0.00000000 </v>
   <v>       0.37500000       0.44444444       0.00000000 </v>
   <v>       0.41666667       0.44444444       0.00000000 </v>
   <v>       0.45833333       0.44444444       0.00000000 </v>
   <v>       0.50000000       0.44444444       0.00000000 </v>
   <v>       0.00000000       0.47222222       0.00000000 </v>
   <v>       0.04166667       0.47222222       0.00000000 </v>
   <v>       0.08333333       0.47222222       0.00000000 </v>
   <v>       0.12500000       0.47222222       0.00000000 </v>
   <v>       0.16666667       0.47222222       0.00000000 </v>
   <v>       0.20833333       0.47222222       0.00000000 </v>
   <v>       0.25000000       0.47222222       0.00000000 </v>
   <v>       0.29166667       0.47222222       0.00000000 </v>
   <v>       0.33333333       0.47222222       0.00000000 </v>
   <v>       0.37500000       0.47222222       0.00000000 </v>
   <v>       0.41666667       0.47222222       0.00000000 </v>
   <v>       0.45833333       0.47222222       0.00000000 </v>
   <v>       0.50000000       0.47222222       0.00000000 </v>
   <v>       0.00000000       0.50000000       0.00000000 </v>
   <v>       0.04166667       0.50000000       0.00000000 </v>
   <v>       0.08333333       0.50000000       0.00000000 </v>
   <v>       0.12500000       0.50000000       0.00000000 </v>
   <v>       0.16666667       0.50000000       0.00000000 </v>
   <v>       0.20833333       0.50000000       0.00000000 </v>
   <v>       0.25000000       0.50000000       0.00000000 </v>
   <v>       0.29166667       0.50000000       0.00000000 </v>
   <v>       0.33333333       0.50000000       0.00000000 </v>
   <v>       0.37500000       0.50000000       0.00000000 </v>
   <v>       0.41666667       0.50000000       0.00000000 </v>
   <v>       0.45833333       0.50000000       0.00000000 </v>
   <v>       0.50000000       0.50000000       0.00000000 </v>
  </varray>
  <varray name="weights" >
   <v>       0.00115741 </v>
   <v>       0.00231481 </v>
   <v>       0.00231481 </v>
   <v>       0.00231481 </v>
   <v>       0.00231481 </v>
   <v>       0.00231481 </v>
   <v>       0.00231481 </v>
   <v>       0.00231481 </v>
   <v>       0.00231481 </v>
   <v>       0.00231481 </v>
   <v>       0.00231481 </v>
   <v>       0.00231481 </v>
   <v>       0.00115741 </v>
   <v>       0.00231481 </v>
   <v>       0.00462963 </v>
   <v>       0.00462963 </v>
   <v>       0.00462963 </v>
   <v>       0.00462963 </v>
   <v>       0.00462963 </v>
   <v>       0.00462963 </v>
   <v>       0.00462963 </v>
   <v>       0.00462963 </v>
   <v>       0.00462963 </v>
   <v>       0.00462963 </v>
   <v>       0.00462963 </v>
   <v>       0.00231481 </v>
   <v>       0.00231481 </v>
   <v>       0.00462963 </v>
   <v>       0.00462963 </v>
   <v>       0.00462963 </v>
   <v>       0.00462963 </v>
   <v>       0.00462963 </v>
   <v>       0.00462963 </v>
   <v>       0.00462963 </v>
   <v>       0.00462963 </v>
   <v>       0.00462963 </v>
   <v>       0.00462963 </v>
   <v>       0.00462963 </v>
   <v>       0.00231481 </v>
   <v>       0.00231481 </v>
   <v>       0.00462963 </v>
   <v>       0.00462963 </v>
   <v>       0.00462963 </v>
   <v>       0.00462963 </v>
   <v>       0.00462963 </v>
   <v>       0.00462963 </v>
   <v>       0.00462963 </v>
   <v>       0.00462963 </v>
   <v>       0.00462963 </v>
   <v>       0.00462963 </v>
   <v>       0.00462963 </v>
   <v>       0.00231481 </v>
   <v>       0.00231481 </v>
   <v>       0.00462963 </v>
   <v>       0.00462963 </v>
   <v>       0.00462963 </v>
   <v>       0.00462963 </v>
   <v>       0.00462963 </v>
   <v>       0.00462963 </v>
   <v>       0.00462963 </v>
   <v>       0.00462963 </v>
   <v>       0.00462963 </v>
   <v>       0.00462963 </v>
   <v>       0.00462963 </v>
   <v>       0.00231481 </v>
   <v>       0.00231481 </v>
   <v>       0.00462963 </v>
   <v>       0.00462963 </v>
   <v>       0.00462963 </v>
   <v>       0.00462963 </v>
   <v>       0.00462963 </v>
   <v>       0.00462963 </v>
   <v>       0.00462963 </v>
   <v>       0.00462963 </v>
   <v>       0.00462963 </v>
   <v>       0.00462963 </v>
   <v>       0.00462963 </v>
   <v>       0.00231481 </v>
   <v>       0.00231481 </v>
   <v>       0.00462963 </v>
   <v>       0.00462963 </v>
   <v>       0.00462963 </v>
   <v>       0.00462963 </v>
   <v>       0.00462963 </v>
   <v>       0.00462963 </v>
   <v>       0.00462963 </v>
   <v>       0.00462963 </v>
   <v>       0.00462963 </v>
   <v>       0.00462963 </v>
   <v>       0.00462963 </v>
   <v>       0.00231481 </v>
   <v>       0.00231481 </v>
   <v>       0.00462963 </v>
   <v>       0.00462963 </v>
   <v>       0.00462963 </v>
   <v>       0.00462963 </v>
   <v>       0.00462963 </v>
   <v>       0.00462963 </v>
   <v>       0.00462963 </v>
   <v>       0.00462963 </v>
   <v>       0.00462963 </v>
   <v>       0.00462963 </v>
   <v>       0.00462963 </v>
   <v>       0.00231481 </v>
   <v>       0.00231481 </v>
   <v>       0.00462963 </v>
   <v>       0.00462963 </v>
   <v>       0.00462963 </v>
   <v>       0.00462963 </v>
   <v>       0.00462963 </v>
   <v>       0.00462963 </v>
   <v>       0.00462963 </v>
   <v>       0.00462963 </v>
   <v>       0.00462963 </v>
   <v>       0.00462963 </v>
   <v>       0.00462963 </v>
   <v>       0.00231481 </v>
   <v>       0.00231481 </v>
   <v>       0.00462963 </v>
   <v>       0.00462963 </v>
   <v>       0.00462963 </v>
   <v>       0.00462963 </v>
   <v>       0.00462963 </v>
   <v>       0.00462963 </v>
   <v>       0.00462963 </v>
   <v>       0.00462963 </v>
   <v>       0.00462963 </v>
   <v>       0.00462963 </v>
   <v>       0.00462963 </v>
   <v>       0.00231481 </v>
   <v>       0.00231481 </v>
   <v>       0.00462963 </v>
   <v>       0.00462963 </v>
   <v>       0.00462963 </v>
   <v>       0.00462963 </v>
   <v>       0.00462963 </v>
   <v>       0.00462963 </v>
   <v>       0.00462963 </v>
   <v>       0.00462963 </v>
   <v>       0.00462963 </v>
   <v>       0.00462963 </v>
   <v>       0.00462963 </v>
   <v>       0.00231481 </v>
   <v>       0.00231481 </v>
   <v>       0.00462963 </v>
   <v>       0.00462963 </v>
   <v>       0.00462963 </v>
   <v>       0.00462963 </v>
   <v>       0.00462963 </v>
   <v>       0.00462963 </v>
   <v>       0.00462963 </v>
   <v>       0.00462963 </v>
   <v>       0.00462963 </v>
   <v>       0.00462963 </v>
   <v>       0.00462963 </v>
   <v>       0.00231481 </v>
   <v>       0.00231481 </v>
   <v>       0.00462963 </v>
   <v>       0.00462963 </v>
   <v>       0.00462963 </v>
   <v>       0.00462963 </v>
   <v>       0.00462963 </v>
   <v>       0.00462963 </v>
   <v>       0.00462963 </v>
   <v>       0.00462963 </v>
   <v>       0.00462963 </v>
   <v>       0.00462963 </v>
   <v>       0.00462963 </v>
   <v>       0.00231481 </v>
   <v>       0.00231481 </v>
   <v>       0.00462963 </v>
   <v>       0.00462963 </v>
   <v>       0.00462963 </v>
   <v>       0.00462963 </v>
   <v>       0.00462963 </v>
   <v>       0.00462963 </v>
   <v>       0.00462963 </v>
   <v>       0.00462963 </v>
   <v>       0.00462963 </v>
   <v>       0.00462963 </v>
   <v>       0.00462963 </v>
   <v>       0.00231481 </v>
   <v>       0.00231481 </v>
   <v>       0.00462963 </v>
   <v>       0.00462963 </v>
   <v>       0.00462963 </v>
   <v>       0.00462963 </v>
   <v>       0.00462963 </v>
   <v>       0.00462963 </v>
   <v>       0.00462963 </v>
   <v>       0.00462963 </v>
   <v>       0.00462963 </v>
   <v>       0.00462963 </v>
   <v>       0.00462963 </v>
   <v>       0.00231481 </v>
   <v>       0.00231481 </v>
   <v>       0.00462963 </v>
   <v>       0.00462963 </v>
   <v>       0.00462963 </v>
   <v>       0.00462963 </v>
   <v>       0.00462963 </v>
   <v>       0.00462963 </v>
   <v>       0.00462963 </v>
   <v>       0.00462963 </v>
   <v>       0.00462963 </v>
   <v>       0.00462963 </v>
   <v>       0.00462963 </v>
   <v>       0.00231481 </v>
   <v>       0.00231481 </v>
   <v>       0.00462963 </v>
   <v>       0.00462963 </v>
   <v>       0.00462963 </v>
   <v>       0.00462963 </v>
   <v>       0.00462963 </v>
   <v>       0.00462963 </v>
   <v>       0.00462963 </v>
   <v>       0.00462963 </v>
   <v>       0.00462963 </v>
   <v>       0.00462963 </v>
   <v>       0.00462963 </v>
   <v>       0.00231481 </v>
   <v>       0.00231481 </v>
   <v>       0.00462963 </v>
   <v>       0.00462963 </v>
   <v>       0.00462963 </v>
   <v>       0.00462963 </v>
   <v>       0.00462963 </v>
   <v>       0.00462963 </v>
   <v>       0.00462963 </v>
   <v>       0.00462963 </v>
   <v>       0.00462963 </v>
   <v>       0.00462963 </v>
   <v>       0.00462963 </v>
   <v>       0.00231481 </v>
   <v>       0.00115741 </v>
   <v>       0.00231481 </v>
   <v>       0.00231481 </v>
   <v>       0.00231481 </v>
   <v>       0.00231481 </v>
   <v>       0.00231481 </v>
   <v>       0.00231481 </v>
   <v>       0.00231481 </v>
   <v>       0.00231481 </v>
   <v>       0.00231481 </v>
   <v>       0.00231481 </v>
   <v>       0.00231481 </v>
   <v>       0.00115741 </v>
  </varray>
 </kpoints>
 <parameters>
  <separator name="general" >
   <i type="string" name="SYSTEM">gr</i>
   <i type="logical" name="LCOMPAT"> F  </i>
  </separator>
  <separator name="electronic" >
   <i type="string" name="PREC">accura</i>
   <i name="ENMAX">   2000.00000000</i>
   <i name="ENAUG">    644.87300000</i>
   <i name="EDIFF">      0.00000000</i>
   <i type="int" name="IALGO">    68</i>
   <i type="int" name="IWAVPR">    11</i>
   <i type="int" name="NBANDS">    12</i>
   <i name="NELECT">     16.00000000</i>
   <i type="int" name="TURBO">     0</i>
   <i type="int" name="IRESTART">     0</i>
   <i type="int" name="NREBOOT">     0</i>
   <i type="int" name="NMIN">     0</i>
   <i name="EREF">      0.00000000</i>
   <separator name="electronic smearing" >
    <i type="int" name="ISMEAR">     0</i>
    <i name="SIGMA">      0.05000000</i>
    <i name="KSPACING">      0.50000000</i>
    <i type="logical" name="KGAMMA"> T  </i>
   </separator>
   <separator name="electronic projectors" >
    <i type="logical" name="LREAL"> F  </i>
    <v name="ROPT">      0.00000000</v>
    <i type="int" name="LMAXPAW">  -100</i>
    <i type="int" name="LMAXMIX">     2</i>
    <i type="logical" name="NLSPLINE"> F  </i>
   </separator>
   <separator name="electronic startup" >
    <i type="int" name="ISTART">     0</i>
    <i type="int" name="ICHARG">     2</i>
    <i type="int" name="INIWAV">     1</i>
   </separator>
   <separator name="electronic spin" >
    <i type="int" name="ISPIN">     1</i>
    <i type="logical" name="LNONCOLLINEAR"> F  </i>
    <v name="MAGMOM">      1.00000000      1.00000000      1.00000000      1.00000000</v>
    <i name="NUPDOWN">     -1.00000000</i>
    <i type="logical" name="LSORBIT"> F  </i>
    <v name="SAXIS">      0.00000000      0.00000000      1.00000000</v>
    <i type="logical" name="LSPIRAL"> F  </i>
    <v name="QSPIRAL">      0.00000000      0.00000000      0.00000000</v>
    <i type="logical" name="LZEROZ"> F  </i>
   </separator>
   <separator name="electronic exchange-correlation" >
    <i type="logical" name="LASPH"> F  </i>
    <i type="logical" name="LMETAGGA"> F  </i>
   </separator>
   <separator name="electronic convergence" >
    <i type="int" name="NELM">   100</i>
    <i type="int" name="NELMDL">    -3</i>
    <i type="int" name="NELMIN">     5</i>
    <i name="ENINI">   2000.00000000</i>
    <separator name="electronic convergence detail" >
     <i type="logical" name="LDIAG"> T  </i>
     <i type="logical" name="LSUBROT"> F  </i>
     <i name="WEIMIN">      0.00100000</i>
     <i name="EBREAK">      0.00000000</i>
     <i name="DEPER">      0.30000000</i>
     <i type="int" name="NRMM">     4</i>
     <i name="TIME">      0.40000000</i>
    </separator>
   </separator>
   <separator name="electronic mixer" >
    <i name="AMIX">      0.40000000</i>
    <i name="BMIX">      1.00000000</i>
    <i name="AMIN">      0.10000000</i>
    <i name="AMIX_MAG">      1.60000000</i>
    <i name="BMIX_MAG">      1.00000000</i>
    <separator name="electronic mixer details" >
     <i type="int" name="IMIX">     4</i>
     <i type="int" name="MAXMIX">   -45</i>
     <i name="WC">    100.00000000</i>
     <i type="int" name="INIMIX">     1</i>
     <i type="int" name="MIXPRE">     1</i>
     <i type="int" name="MREMOVE">     5</i>
    </separator>
   </separator>
   <separator name="electronic dipolcorrection" >
    <i type="logical" name="LDIPOL"> F  </i>
    <i type="logical" name="LMONO"> F  </i>
    <i type="int" name="IDIPOL">     0</i>
    <i name="EPSILON">      1.00000000</i>
    <v name="DIPOL">   -100.00000000   -100.00000000   -100.00000000</v>
    <i name="EFIELD">      0.00000000</i>
   </separator>
  </separator>
  <separator name="grids" >
   <i type="int" name="NGX">    64</i>
   <i type="int" name="NGY">    36</i>
   <i type="int" name="NGZ">   294</i>
   <i type="int" name="NGXF">   128</i>
   <i type="int" name="NGYF">    72</i>
   <i type="int" name="NGZF">   588</i>
   <i type="logical" name="ADDGRID"> F  </i>
  </separator>
  <separator name="ionic" >
   <i type="int" name="NSW">   400</i>
   <i type="int" name="IBRION">     1</i>
   <i type="int" name="ISIF">     2</i>
   <i name="PSTRESS">      0.00000000</i>
   <i name="EDIFFG">     -0.00000100</i>
   <i type="int" name="NFREE">     0</i>
   <i name="POTIM">      0.50000000</i>
   <i name="SMASS">     -3.00000000</i>
   <i name="SCALEE">      1.00000000</i>
  </separator>
  <separator name="ionic md" >
   <i name="TEBEG">      0.00010000</i>
   <i name="TEEND">      0.00010000</i>
   <i type="int" name="NBLOCK">     1</i>
   <i type="int" name="KBLOCK">   400</i>
   <i type="int" name="NPACO">   256</i>
   <i name="APACO">     16.00000000</i>
  </separator>
  <separator name="symmetry" >
   <i type="int" name="ISYM">     2</i>
   <i name="SYMPREC">      0.00001000</i>
  </separator>
  <separator name="dos" >
   <i type="logical" name="LORBIT"> F  </i>
   <v name="RWIGS">     -1.00000000</v>
   <i type="int" name="NEDOS">   301</i>
   <i name="EMIN">     10.00000000</i>
   <i name="EMAX">    -10.00000000</i>
   <i name="EFERMI">      0.00000000</i>
  </separator>
  <separator name="writing" >
   <i type="int" name="NWRITE">     2</i>
   <i type="logical" name="LWAVE"> F  </i>
   <i type="logical" name="LCHARG"> F  </i>
   <i type="logical" name="LPARD"> F  </i>
   <i type="logical" name="LVTOT"> F  </i>
   <i type="logical" name="LVHAR"> F  </i>
   <i type="logical" name="LELF"> F  </i>
   <i type="logical" name="LOPTICS"> F  </i>
   <v name="STM">      0.00000000      0.00000000      0.00000000      0.00000000      0.00000000      0.00000000      0.00000000</v>
  </separator>
  <separator name="performance" >
   <i type="int" name="NPAR">     4</i>
   <i type="int" name="NSIM">     4</i>
   <i type="int" name="NBLK">    -1</i>
   <i type="logical" name="LPLANE"> T  </i>
   <i type="logical" name="LSCALAPACK"> F  </i>
   <i type="logical" name="LSCAAWARE"> F  </i>
   <i type="logical" name="LSCALU"> F  </i>
   <i type="logical" name="LASYNC"> F  </i>
   <i type="logical" name="LORBITALREAL"> F  </i>
  </separator>
  <separator name="miscellaneous" >
   <i type="int" name="IDIOT">     3</i>
   <i type="logical" name="LMUSIC"> F  </i>
   <v name="POMASS">     12.01100000</v>
   <v name="DARWINR">      0.00000000</v>
   <v name="DARWINV">      1.00000000</v>
   <i type="logical" name="LCORR"> T  </i>
  </separator>
  <i type="logical" name="GGA_COMPAT"> T  </i>
  <i type="logical" name="LBERRY"> F  </i>
  <i type="int" name="ICORELEVEL">     0</i>
  <i type="logical" name="LDAU"> F  </i>
  <i type="int" name="I_CONSTRAINED_M">     0</i>
  <separator name="electronic exchange-correlation" >
   <i type="string" name="GGA">--</i>
   <i type="int" name="VOSKOWN">     0</i>
   <i type="logical" name="LHFCALC"> F  </i>
   <i type="string" name="PRECFOCK"></i>
   <i type="logical" name="LSYMGRAD"> F  </i>
   <i type="logical" name="LHFONE"> F  </i>
   <i type="logical" name="LRHFCALC"> F  </i>
   <i type="logical" name="LTHOMAS"> F  </i>
   <i type="logical" name="LMODELHF"> F  </i>
   <i name="ENCUT4O">     -1.00000000</i>
   <i type="int" name="EXXOEP">     0</i>
   <i type="int" name="FOURORBIT">     0</i>
   <i name="AEXX">      0.00000000</i>
   <i name="HFALPHA">      0.00000000</i>
   <i name="MCALPHA">      0.00000000</i>
   <i name="ALDAX">      1.00000000</i>
   <i name="AGGAX">      1.00000000</i>
   <i name="ALDAC">      1.00000000</i>
   <i name="AGGAC">      1.00000000</i>
   <i type="int" name="NKREDX">     1</i>
   <i type="int" name="NKREDY">     1</i>
   <i type="int" name="NKREDZ">     1</i>
   <i type="logical" name="SHIFTRED"> F  </i>
   <i type="logical" name="ODDONLY"> F  </i>
   <i type="logical" name="EVENONLY"> F  </i>
   <i type="int" name="LMAXFOCK">     0</i>
   <i type="int" name="NMAXFOCKAE">     0</i>
   <i type="logical" name="LFOCKAEDFT"> F  </i>
   <i name="HFSCREEN">      0.00000000</i>
   <i name="HFSCREENC">      0.00000000</i>
   <i type="int" name="NBANDSGWLOW">     0</i>
  </separator>
  <separator name="vdW DFT" >
   <i type="logical" name="LUSE_VDW"> F  </i>
   <i name="Zab_VDW">     -0.84910000</i>
   <i name="PARAM1">      0.12340000</i>
   <i name="PARAM2">      1.00000000</i>
   <i name="PARAM3">      0.00000000</i>
  </separator>
  <separator name="model GW" >
   <i type="int" name="MODEL_GW">     0</i>
   <i name="MODEL_EPS0">     31.62568521</i>
   <i name="MODEL_ALPHA">      1.00000000</i>
  </separator>
  <separator name="linear response parameters" >
   <i type="logical" name="LEPSILON"> F  </i>
   <i type="logical" name="LRPA"> F  </i>
   <i type="logical" name="LNABLA"> F  </i>
   <i type="logical" name="LVEL"> F  </i>
   <i type="int" name="KINTER">     0</i>
   <i name="CSHIFT">      0.10000000</i>
   <i name="OMEGAMAX">     -1.00000000</i>
   <i name="DEG_THRESHOLD">      0.00200000</i>
  </separator>
  <separator name="orbital magnetization" >
   <i type="logical" name="NUCIND"> F  </i>
   <v name="MAGPOS">      0.00000000      0.00000000      0.00000000</v>
   <i type="logical" name="LNICSALL"> T  </i>
   <i type="logical" name="ORBITALMAG"> F  </i>
   <i type="logical" name="LMAGBLOCH"> F  </i>
   <i type="logical" name="LCHIMAG"> F  </i>
   <i type="logical" name="LGAUGE"> T  </i>
   <i type="int" name="MAGATOM">     0</i>
   <v name="MAGDIPOL">      0.00000000      0.00000000      0.00000000</v>
   <v name="AVECCONST">      0.00000000      0.00000000      0.00000000</v>
  </separator>
  <separator name="response functions" >
   <i type="logical" name="LADDER"> F  </i>
   <i type="logical" name="LFXC"> F  </i>
   <i type="logical" name="LHARTREE"> T  </i>
   <i type="int" name="IBSE">     0</i>
   <i type="logical" name="LTCTE"> F  </i>
   <i type="logical" name="LTETE"> F  </i>
   <i type="logical" name="LTRIPLET"> F  </i>
   <i type="logical" name="LFXCEPS"> F  </i>
   <i type="logical" name="LFXHEG"> F  </i>
   <i type="logical" name="L2ORDER"> F  </i>
   <i type="logical" name="LUSEW"> F  </i>
   <i name="ENCUTGW">     -2.00000000</i>
   <i name="ENCUTGWSOFT">     -2.00000000</i>
   <i name="ENCUTLF">     -1.00000000</i>
   <i type="int" name="LMAXMP2">    -1</i>
   <i name="SCISSOR">      0.00000000</i>
   <i type="int" name="NOMEGA">     0</i>
   <i type="int" name="NOMEGAR">     0</i>
   <i type="int" name="NBANDSGW">    -1</i>
   <i type="int" name="NBANDSO">    -1</i>
   <i type="int" name="NBANDSV">    -1</i>
   <i type="int" name="NELM">   100</i>
   <i type="int" name="DIM">     3</i>
   <i type="int" name="ANTIRES">     0</i>
   <i name="OMEGAMAX">    -30.00000000</i>
   <i name="OMEGAMIN">    -30.00000000</i>
   <i name="OMEGATL">   -200.00000000</i>
   <i type="int" name="OMEGAGRID">     0</i>
   <i name="CSHIFT">     -0.10000000</i>
   <i type="logical" name="SELFENERGY"> F  </i>
   <i type="logical" name="LSPECTRAL"> F  </i>
   <i type="logical" name="ODDONLYGW"> F  </i>
   <i type="logical" name="EVENONLYGW"> F  </i>
   <i type="int" name="NKREDLFX">     1</i>
   <i type="int" name="NKREDLFY">     1</i>
   <i type="int" name="NKREDLFZ">     1</i>
   <i type="int" name="MAXMEM">  1800</i>
   <i type="int" name="TELESCOPE">     0</i>
   <i type="int" name="TAUPAR">     1</i>
  </separator>
  <separator name="External order field" >
   <i name="OFIELD_KAPPA">      0.00000000</i>
   <v name="OFIELD_K">      0.00000000      0.00000000      0.00000000</v>
   <i name="OFIELD_Q6_NEAR">      0.00000000</i>
   <i name="OFIELD_Q6_FAR">      0.00000000</i>
   <i name="OFIELD_A">      0.00000000</i>
  </separator>
 </parameters>
 <atominfo>
  <atoms>       4 </atoms>
  <types>       1 </types>
  <array name="atoms" >
   <dimension dim="1">ion</dimension>
   <field type="string">element</field>
   <field type="int">atomtype</field>
   <set>
    <rc><c>C </c><c>   1</c></rc>
    <rc><c>C </c><c>   1</c></rc>
    <rc><c>C </c><c>   1</c></rc>
    <rc><c>C </c><c>   1</c></rc>
   </set>
  </array>
  <array name="atomtypes" >
   <dimension dim="1">type</dimension>
   <field type="int">atomspertype</field>
   <field type="string">element</field>
   <field>mass</field>
   <field>valence</field>
   <field type="string">pseudopotential</field>
   <set>
    <rc><c>   4</c><c>C </c><c>     12.01100000</c><c>      4.00000000</c><c> PAW_PBE C 08Apr2002                    </c></rc>
   </set>
  </array>
 </atominfo>
 <structure name="initialpos" >
  <crystal>
   <varray name="basis" >
    <v>       4.31706015       0.00000000       0.00000000 </v>
    <v>       0.00000000       2.46273859       0.00000000 </v>
    <v>       0.00000000       0.00000000      19.83089291 </v>
   </varray>
   <i name="volume">    210.83790140 </i>
   <varray name="rec_basis" >
    <v>       0.23163912       0.00000000       0.00000000 </v>
    <v>       0.00000000       0.40605203       0.00000000 </v>
    <v>       0.00000000       0.00000000       0.05042637 </v>
   </varray>
  </crystal>
  <varray name="positions" >
   <v>       0.99975412       0.00000000       0.00000000 </v>
   <v>       0.16691255       0.50000000       0.00000000 </v>
   <v>       0.49975412       0.50000000       0.00000000 </v>
   <v>       0.66691255       0.00000000       0.00000000 </v>
  </varray>
 </structure>
 <calculation>
  <scstep>
   <time name="dav">  296.74  455.10</time>
   <time name="total">  299.28  457.72</time>
   <energy>
    <i name="alphaZ">      6.18334092 </i>
    <i name="ewald">   2529.75546994 </i>
    <i name="hartreedc">  -2956.84377960 </i>
    <i name="XCdc">     54.98212654 </i>
    <i name="pawpsdc">    151.32577238 </i>
    <i name="pawaedc">   -155.92769107 </i>
    <i name="eentropy">     -0.00153244 </i>
    <i name="bandstr">    -30.65083754 </i>
    <i name="atom">    588.62352690 </i>
    <i name="e_fr_energy">    187.44639605 </i>
    <i name="e_wo_entrp">    187.44792849 </i>
    <i name="e_0_energy">    187.44716227 </i>
   </energy>
  </scstep>
  <scstep>
   <time name="dav">  452.47  471.26</time>
   <time name="total">  452.47  471.38</time>
   <energy>
    <i name="e_fr_energy">     -9.58349854 </i>
    <i name="e_wo_entrp">     -9.58336016 </i>
    <i name="e_0_energy">     -9.58342935 </i>
   </energy>
  </scstep>
  <scstep>
   <time name="dav">  345.90  353.93</time>
   <time name="total">  375.05  383.12</time>
   <energy>
    <i name="e_fr_energy">    -38.28666068 </i>
    <i name="e_wo_entrp">    -38.28665514 </i>
    <i name="e_0_energy">    -38.28665791 </i>
   </energy>
  </scstep>
  <scstep>
   <time name="diag">   79.66   79.77</time>
   <time name="diis">  326.35  326.45</time>
   <time name="orth">    3.07    3.07</time>
   <time name="total">  440.58  441.15</time>
   <energy>
    <i name="e_fr_energy">    -37.65022557 </i>
    <i name="e_wo_entrp">    -37.65022533 </i>
    <i name="e_0_energy">    -37.65022545 </i>
   </energy>
  </scstep>
  <scstep>
   <time name="diag">   79.66   79.68</time>
   <time name="diis">  323.60  323.72</time>
   <time name="orth">    3.09    3.09</time>
   <time name="total">  438.05  441.49</time>
   <energy>
    <i name="e_fr_energy">    -36.90954339 </i>
    <i name="e_wo_entrp">    -36.90954326 </i>
    <i name="e_0_energy">    -36.90954332 </i>
   </energy>
  </scstep>
  <scstep>
   <time name="diag">   79.28   79.69</time>
   <time name="diis">  352.55  354.05</time>
   <time name="orth">    3.07    3.07</time>
   <time name="total">  466.78  472.22</time>
   <energy>
    <i name="e_fr_energy">    -36.91145885 </i>
    <i name="e_wo_entrp">    -36.91145874 </i>
    <i name="e_0_energy">    -36.91145879 </i>
   </energy>
  </scstep>
  <scstep>
   <time name="diag">   79.10   79.60</time>
   <time name="diis">  329.79  332.52</time>
   <time name="orth">    3.07    3.07</time>
   <time name="total">  443.28  446.71</time>
   <energy>
    <i name="e_fr_energy">    -36.90229428 </i>
    <i name="e_wo_entrp">    -36.90229415 </i>
    <i name="e_0_energy">    -36.90229421 </i>
   </energy>
  </scstep>
  <scstep>
   <time name="diag">   78.97   79.50</time>
   <time name="diis">  321.56  323.83</time>
   <time name="orth">    3.09    3.09</time>
   <time name="total">  435.14  438.28</time>
   <energy>
    <i name="e_fr_energy">    -36.89668641 </i>
    <i name="e_wo_entrp">    -36.89668629 </i>
    <i name="e_0_energy">    -36.89668635 </i>
   </energy>
  </scstep>
  <scstep>
   <time name="diag">   78.92   79.47</time>
   <time name="diis">  319.56  322.86</time>
   <time name="orth">    3.08    3.10</time>
   <time name="total">  433.49  437.62</time>
   <energy>
    <i name="e_fr_energy">    -36.89646514 </i>
    <i name="e_wo_entrp">    -36.89646502 </i>
    <i name="e_0_energy">    -36.89646508 </i>
   </energy>
  </scstep>
  <scstep>
   <time name="diag">   78.70   79.48</time>
   <time name="diis">  321.68  323.57</time>
   <time name="orth">    3.08    3.08</time>
   <time name="total">  435.13  438.08</time>
   <energy>
    <i name="e_fr_energy">    -36.89625460 </i>
    <i name="e_wo_entrp">    -36.89625448 </i>
    <i name="e_0_energy">    -36.89625454 </i>
   </energy>
  </scstep>
  <scstep>
   <time name="diag">   78.83   79.44</time>
   <time name="diis">  322.13  325.73</time>
   <time name="orth">    3.07    3.08</time>
   <time name="total">  435.59  440.30</time>
   <energy>
    <i name="e_fr_energy">    -36.89879535 </i>
    <i name="e_wo_entrp">    -36.89879523 </i>
    <i name="e_0_energy">    -36.89879529 </i>
   </energy>
  </scstep>
  <scstep>
   <time name="diag">   78.71   79.45</time>
   <time name="diis">  322.98  324.94</time>
   <time name="orth">    3.07    3.08</time>
   <time name="total">  436.08  438.98</time>
   <energy>
    <i name="e_fr_energy">    -36.89924282 </i>
    <i name="e_wo_entrp">    -36.89924270 </i>
    <i name="e_0_energy">    -36.89924276 </i>
   </energy>
  </scstep>
  <scstep>
   <time name="diag">   79.48   79.61</time>
   <time name="diis">  327.38  330.89</time>
   <time name="orth">    3.08    3.08</time>
   <time name="total">  441.22  445.18</time>
   <energy>
    <i name="e_fr_energy">    -36.89952042 </i>
    <i name="e_wo_entrp">    -36.89952018 </i>
    <i name="e_0_energy">    -36.89952030 </i>
   </energy>
  </scstep>
  <scstep>
   <time name="diag">   78.84   79.67</time>
   <time name="diis">  324.43  326.43</time>
   <time name="orth">    3.07    3.07</time>
   <time name="total">  437.90  446.48</time>
   <energy>
    <i name="e_fr_energy">    -36.90060156 </i>
    <i name="e_wo_entrp">    -36.90057457 </i>
    <i name="e_0_energy">    -36.90058807 </i>
   </energy>
  </scstep>
  <scstep>
   <time name="diag">   79.49   79.63</time>
   <time name="diis">  343.69  344.70</time>
   <time name="orth">    3.07    3.07</time>
   <time name="total">  457.52  458.90</time>
   <energy>
    <i name="e_fr_energy">    -36.90215694 </i>
    <i name="e_wo_entrp">    -36.90212996 </i>
    <i name="e_0_energy">    -36.90214345 </i>
   </energy>
  </scstep>
  <scstep>
   <time name="diag">   79.26   79.67</time>
   <time name="diis">  321.30  323.55</time>
   <time name="orth">    3.08    3.09</time>
   <time name="total">  434.93  437.92</time>
   <energy>
    <i name="e_fr_energy">    -36.91312073 </i>
    <i name="e_wo_entrp">    -36.91309377 </i>
    <i name="e_0_energy">    -36.91310725 </i>
   </energy>
  </scstep>
  <scstep>
   <time name="diag">   79.41   79.44</time>
   <time name="diis">  330.36  330.47</time>
   <time name="orth">    3.09    3.09</time>
   <time name="total">  444.44  444.77</time>
   <energy>
    <i name="e_fr_energy">    -36.91399344 </i>
    <i name="e_wo_entrp">    -36.91396648 </i>
    <i name="e_0_energy">    -36.91397996 </i>
   </energy>
  </scstep>
  <scstep>
   <time name="diag">   79.46   79.49</time>
   <time name="diis">  322.51  322.64</time>
   <time name="orth">    3.07    3.07</time>
   <time name="total">  436.50  437.02</time>
   <energy>
    <i name="e_fr_energy">    -36.91403155 </i>
    <i name="e_wo_entrp">    -36.91400459 </i>
    <i name="e_0_energy">    -36.91401807 </i>
   </energy>
  </scstep>
  <scstep>
   <time name="diag">   79.49   79.51</time>
   <time name="diis">  322.80  322.91</time>
   <time name="orth">    3.09    3.09</time>
   <time name="total">  437.08  437.26</time>
   <energy>
    <i name="e_fr_energy">    -36.91402916 </i>
    <i name="e_wo_entrp">    -36.91400217 </i>
    <i name="e_0_energy">    -36.91401566 </i>
   </energy>
  </scstep>
  <scstep>
   <time name="diag">   79.51   79.54</time>
   <time name="diis">  322.98  323.08</time>
   <time name="orth">    3.13    3.13</time>
   <time name="total">  437.53  442.12</time>
   <energy>
    <i name="e_fr_energy">    -36.91403710 </i>
    <i name="e_wo_entrp">    -36.91401001 </i>
    <i name="e_0_energy">    -36.91402356 </i>
   </energy>
  </scstep>
  <scstep>
   <time name="diag">   79.16   79.67</time>
   <time name="diis">  318.90  321.88</time>
   <time name="orth">    3.07    3.07</time>
   <time name="total">  432.03  435.91</time>
   <energy>
    <i name="e_fr_energy">    -36.91403647 </i>
    <i name="e_wo_entrp">    -36.91400932 </i>
    <i name="e_0_energy">    -36.91402290 </i>
   </energy>
  </scstep>
  <scstep>
   <time name="diag">   79.16   79.62</time>
   <time name="diis">  319.15  322.36</time>
   <time name="orth">    3.07    3.09</time>
   <time name="total">  432.62  436.70</time>
   <energy>
    <i name="e_fr_energy">    -36.91404298 </i>
    <i name="e_wo_entrp">    -36.91401575 </i>
    <i name="e_0_energy">    -36.91402937 </i>
   </energy>
  </scstep>
  <scstep>
   <time name="diag">   79.03   79.62</time>
   <time name="diis">  320.71  324.20</time>
   <time name="orth">    3.07    3.07</time>
   <time name="total">  433.75  438.21</time>
   <energy>
    <i name="e_fr_energy">    -36.91404689 </i>
    <i name="e_wo_entrp">    -36.91401959 </i>
    <i name="e_0_energy">    -36.91403324 </i>
   </energy>
  </scstep>
  <scstep>
   <time name="diag">   79.62   79.66</time>
   <time name="diis">  321.59  321.69</time>
   <time name="orth">    3.07    3.07</time>
   <time name="total">  436.85  437.03</time>
   <energy>
    <i name="e_fr_energy">    -36.91404754 </i>
    <i name="e_wo_entrp">    -36.91402023 </i>
    <i name="e_0_energy">    -36.91403389 </i>
   </energy>
  </scstep>
  <scstep>
   <time name="diag">   78.90   79.68</time>
   <time name="diis">  319.86  322.68</time>
   <time name="orth">    3.07    3.08</time>
   <time name="total">  433.71  438.18</time>
   <energy>
    <i name="e_fr_energy">    -36.91404747 </i>
    <i name="e_wo_entrp">    -36.91402015 </i>
    <i name="e_0_energy">    -36.91403381 </i>
   </energy>
  </scstep>
  <scstep>
   <time name="diag">   79.02   79.65</time>
   <time name="diis">  324.89  327.00</time>
   <time name="orth">    3.08    3.11</time>
   <time name="total">  438.83  442.66</time>
   <energy>
    <i name="e_fr_energy">    -36.91404729 </i>
    <i name="e_wo_entrp">    -36.91401997 </i>
    <i name="e_0_energy">    -36.91403363 </i>
   </energy>
  </scstep>
  <scstep>
   <time name="diag">   79.08   79.66</time>
   <time name="diis">  322.92  323.44</time>
   <time name="orth">    3.08    3.09</time>
   <time name="total">  436.93  440.79</time>
   <energy>
    <i name="e_fr_energy">    -36.91404715 </i>
    <i name="e_wo_entrp">    -36.91401984 </i>
    <i name="e_0_energy">    -36.91403350 </i>
   </energy>
  </scstep>
  <scstep>
   <time name="diag">   79.29   79.63</time>
   <time name="diis">  320.59  322.16</time>
   <time name="orth">    3.07    3.07</time>
   <time name="total">  434.99  437.13</time>
   <energy>
    <i name="e_fr_energy">    -36.91404706 </i>
    <i name="e_wo_entrp">    -36.91401976 </i>
    <i name="e_0_energy">    -36.91403341 </i>
   </energy>
  </scstep>
  <scstep>
   <time name="diag">   79.65   79.74</time>
   <time name="diis">  323.64  324.20</time>
   <time name="orth">    3.07    3.09</time>
   <time name="total">  437.78  438.71</time>
   <energy>
    <i name="e_fr_energy">    -36.91404703 </i>
    <i name="e_wo_entrp">    -36.91401973 </i>
    <i name="e_0_energy">    -36.91403338 </i>
   </energy>
  </scstep>
  <scstep>
   <time name="diag">   79.19   79.58</time>
   <time name="diis">  323.36  323.99</time>
   <time name="orth">    3.09    3.09</time>
   <time name="total">  437.51  438.58</time>
   <energy>
    <i name="e_fr_energy">    -36.91404699 </i>
    <i name="e_wo_entrp">    -36.91401970 </i>
    <i name="e_0_energy">    -36.91403334 </i>
   </energy>
  </scstep>
  <scstep>
   <time name="diag">   79.66   79.72</time>
   <time name="diis">  324.34  324.41</time>
   <time name="orth">    3.09    3.09</time>
   <time name="total">  438.54  438.69</time>
   <energy>
    <i name="e_fr_energy">    -36.91404695 </i>
    <i name="e_wo_entrp">    -36.91401966 </i>
    <i name="e_0_energy">    -36.91403330 </i>
   </energy>
  </scstep>
  <scstep>
   <time name="diag">   79.63   79.65</time>
   <time name="diis">  326.05  326.13</time>
   <time name="orth">    3.09    3.09</time>
   <time name="total">  440.38  441.40</time>
   <energy>
    <i name="e_fr_energy">    -36.91404694 </i>
    <i name="e_wo_entrp">    -36.91401965 </i>
    <i name="e_0_energy">    -36.91403330 </i>
   </energy>
  </scstep>
  <scstep>
   <time name="diag">   79.52   79.63</time>
   <time name="diis">  323.08  324.03</time>
   <time name="orth">    3.09    3.09</time>
   <time name="total">  437.39  438.51</time>
   <energy>
    <i name="e_fr_energy">    -36.91404694 </i>
    <i name="e_wo_entrp">    -36.91401966 </i>
    <i name="e_0_energy">    -36.91403330 </i>
   </energy>
  </scstep>
  <scstep>
   <time name="diag">   79.54   79.56</time>
   <time name="diis">  323.87  323.94</time>
   <time name="orth">    3.07    3.07</time>
   <time name="total">  438.33  438.45</time>
   <energy>
    <i name="e_fr_energy">    -36.91404694 </i>
    <i name="e_wo_entrp">    -36.91401966 </i>
    <i name="e_0_energy">    -36.91403330 </i>
   </energy>
  </scstep>
  <scstep>
   <time name="diag">   79.60   79.63</time>
   <time name="diis">  314.29  314.36</time>
   <time name="orth">    3.09    3.09</time>
   <time name="total">  399.42  400.03</time>
   <energy>
    <i name="alphaZ">      6.18334092 </i>
    <i name="ewald">   2529.75546994 </i>
    <i name="hartreedc">  -3023.84277140 </i>
    <i name="XCdc">     57.36580780 </i>
    <i name="pawpsdc">    273.64578393 </i>
    <i name="pawaedc">   -278.77904112 </i>
    <i name="eentropy">     -0.00002728 </i>
    <i name="bandstr">   -189.86613662 </i>
    <i name="atom">    588.62352690 </i>
    <i name="e_fr_energy">    -36.91404694 </i>
    <i name="e_wo_entrp">    -36.91401966 </i>
    <i name="e_0_energy">    -36.91403330 </i>
   </energy>
  </scstep>
  <structure>
   <crystal>
    <varray name="basis" >
     <v>       4.31706015       0.00000000       0.00000000 </v>
     <v>       0.00000000       2.46273859       0.00000000 </v>
     <v>       0.00000000       0.00000000      19.83089291 </v>
    </varray>
    <i name="volume">    210.83790140 </i>
    <varray name="rec_basis" >
     <v>       0.23163912       0.00000000       0.00000000 </v>
     <v>       0.00000000       0.40605203       0.00000000 </v>
     <v>       0.00000000       0.00000000       0.05042637 </v>
    </varray>
   </crystal>
   <varray name="positions" >
    <v>       0.99975412       0.00000000       0.00000000 </v>
    <v>       0.16691255       0.50000000       0.00000000 </v>
    <v>       0.49975412       0.50000000       0.00000000 </v>
    <v>       0.66691255       0.00000000       0.00000000 </v>
   </varray>
  </structure>
  <varray name="forces" >
   <v>      -0.00164947       0.00000000       0.00000000 </v>
   <v>       0.00164947      -0.00000000      -0.00000000 </v>
   <v>      -0.00164947      -0.00000000       0.00000000 </v>
   <v>       0.00164947       0.00000000      -0.00000000 </v>
  </varray>
  <varray name="stress" >
   <v>     -17.09284392       0.00000000       0.00000000 </v>
   <v>       0.00000000       0.01028698       0.00000000 </v>
   <v>       0.00000000       0.00000000      -0.01143711 </v>
  </varray>
  <energy>
   <i name="e_fr_energy">    -36.91404694 </i>
   <i name="e_wo_entrp">    -36.91403330 </i>
   <i name="e_0_energy">     -0.00002728 </i>
  </energy>
  <time name="totalsc">15226.9315546.56</time>
 </calculation>
 <calculation>
  <scstep>
   <time name="dav">  332.09  332.41</time>
   <time name="total">  363.87  364.21</time>
   <energy>
    <i name="alphaZ">      6.18334092 </i>
    <i name="ewald">   2529.75476379 </i>
    <i name="hartreedc">  -3023.84238759 </i>
    <i name="XCdc">     57.36578411 </i>
    <i name="pawpsdc">    273.64570754 </i>
    <i name="pawaedc">   -278.77896309 </i>
    <i name="eentropy">     -0.00002887 </i>
    <i name="bandstr">   -189.86578986 </i>
    <i name="atom">    588.62352690 </i>
    <i name="e_fr_energy">    -36.91404615 </i>
    <i name="e_wo_entrp">    -36.91401728 </i>
    <i name="e_0_energy">    -36.91403172 </i>
   </energy>
  </scstep>
  <scstep>
   <time name="diag">   79.62   79.65</time>
   <time name="diis">  323.18  323.24</time>
   <time name="orth">    3.07    3.07</time>
   <time name="total">  437.91  438.01</time>
   <energy>
    <i name="e_fr_energy">    -36.91404619 </i>
    <i name="e_wo_entrp">    -36.91401737 </i>
    <i name="e_0_energy">    -36.91403178 </i>
   </energy>
  </scstep>
  <scstep>
   <time name="diag">   79.62   79.64</time>
   <time name="diis">  325.90  326.01</time>
   <time name="orth">    3.07    3.07</time>
   <time name="total">  440.43  440.58</time>
   <energy>
    <i name="e_fr_energy">    -36.91404615 </i>
    <i name="e_wo_entrp">    -36.91401743 </i>
    <i name="e_0_energy">    -36.91403179 </i>
   </energy>
  </scstep>
  <scstep>
   <time name="diag">   79.60   79.64</time>
   <time name="diis">  334.79  335.05</time>
   <time name="orth">    3.07    3.07</time>
   <time name="total">  449.34  449.69</time>
   <energy>
    <i name="e_fr_energy">    -36.91404615 </i>
    <i name="e_wo_entrp">    -36.91401741 </i>
    <i name="e_0_energy">    -36.91403178 </i>
   </energy>
  </scstep>
  <scstep>
   <time name="diag">   79.65   79.69</time>
   <time name="diis">  283.42  284.83</time>
   <time name="orth">    3.07    3.07</time>
   <time name="total">  397.04  399.00</time>
   <energy>
    <i name="e_fr_energy">    -36.91404615 </i>
    <i name="e_wo_entrp">    -36.91401740 </i>
    <i name="e_0_energy">    -36.91403178 </i>
   </energy>
  </scstep>
  <scstep>
   <time name="diag">   79.26   79.66</time>
   <time name="diis">  217.99  218.83</time>
   <time name="orth">    3.07    3.07</time>
   <time name="total">  331.64  345.07</time>
   <energy>
    <i name="e_fr_energy">    -36.91404615 </i>
    <i name="e_wo_entrp">    -36.91401741 </i>
    <i name="e_0_energy">    -36.91403178 </i>
   </energy>
  </scstep>
  <scstep>
   <time name="diag">   79.66   79.68</time>
   <time name="diis">  219.76  219.80</time>
   <time name="orth">    3.08    3.08</time>
   <time name="total">  304.96  305.06</time>
   <energy>
    <i name="alphaZ">      6.18334092 </i>
    <i name="ewald">   2529.75476379 </i>
    <i name="hartreedc">  -3023.84202315 </i>
    <i name="XCdc">     57.36577009 </i>
    <i name="pawpsdc">    273.64444847 </i>
    <i name="pawaedc">   -278.77769833 </i>
    <i name="eentropy">     -0.00002874 </i>
    <i name="bandstr">   -189.86614611 </i>
    <i name="atom">    588.62352690 </i>
    <i name="e_fr_energy">    -36.91404615 </i>
    <i name="e_wo_entrp">    -36.91401741 </i>
    <i name="e_0_energy">    -36.91403178 </i>
   </energy>
  </scstep>
  <structure>
   <crystal>
    <varray name="basis" >
     <v>       4.31706015       0.00000000       0.00000000 </v>
     <v>       0.00000000       2.46273859       0.00000000 </v>
     <v>       0.00000000       0.00000000      19.83089291 </v>
    </varray>
    <i name="volume">    210.83790140 </i>
    <varray name="rec_basis" >
     <v>       0.23163912       0.00000000       0.00000000 </v>
     <v>       0.00000000       0.40605203       0.00000000 </v>
     <v>       0.00000000       0.00000000       0.05042637 </v>
    </varray>
   </crystal>
   <varray name="positions" >
    <v>       0.99973569       0.00000000       0.00000000 </v>
    <v>       0.16693098       0.50000000      -0.00000000 </v>
    <v>       0.49973569       0.50000000       0.00000000 </v>
    <v>       0.66693098       0.00000000      -0.00000000 </v>
   </varray>
  </structure>
  <varray name="forces" >
   <v>       0.00652702      -0.00000000       0.00000000 </v>
   <v>      -0.00652702       0.00000000      -0.00000000 </v>
   <v>       0.00652702      -0.00000000       0.00000000 </v>
   <v>      -0.00652702       0.00000000      -0.00000000 </v>
  </varray>
  <varray name="stress" >
   <v>     -17.07177645       0.00000000       0.00000000 </v>
   <v>       0.00000000      -0.01621018       0.00000000 </v>
   <v>       0.00000000       0.00000000      -0.01021255 </v>
  </varray>
  <energy>
   <i name="e_fr_energy">    -36.91404615 </i>
   <i name="e_wo_entrp">    -36.91403178 </i>
   <i name="e_0_energy">     -0.00002874 </i>
  </energy>
  <time name="totalsc"> 2826.36 2846.88</time>
 </calculation>
 <calculation>
  <scstep>
   <time name="dav">  314.79  314.93</time>
   <time name="total">  347.51  347.65</time>
   <energy>
    <i name="alphaZ">      6.18334092 </i>
    <i name="ewald">   2529.75532677 </i>
    <i name="hartreedc">  -3023.84225363 </i>
    <i name="XCdc">     57.36578595 </i>
    <i name="pawpsdc">    273.64444190 </i>
    <i name="pawaedc">   -278.77769177 </i>
    <i name="eentropy">     -0.00002747 </i>
    <i name="bandstr">   -189.86649655 </i>
    <i name="atom">    588.62352690 </i>
    <i name="e_fr_energy">    -36.91404698 </i>
    <i name="e_wo_entrp">    -36.91401951 </i>
    <i name="e_0_energy">    -36.91403325 </i>
   </energy>
  </scstep>
  <scstep>
   <time name="diag">   79.60   79.61</time>
   <time name="diis">  326.81  327.42</time>
   <time name="orth">    3.08    3.08</time>
   <time name="total">  441.95  442.73</time>
   <energy>
    <i name="e_fr_energy">    -36.91404701 </i>
    <i name="e_wo_entrp">    -36.91401950 </i>
    <i name="e_0_energy">    -36.91403325 </i>
   </energy>
  </scstep>
  <scstep>
   <time name="diag">   79.61   79.72</time>
   <time name="diis">  330.33  330.50</time>
   <time name="orth">    3.08    3.08</time>
   <time name="total">  445.50  446.09</time>
   <energy>
    <i name="e_fr_energy">    -36.91404699 </i>
    <i name="e_wo_entrp">    -36.91401940 </i>
    <i name="e_0_energy">    -36.91403320 </i>
   </energy>
  </scstep>
  <scstep>
   <time name="diag">   79.54   79.68</time>
   <time name="diis">  336.41  336.99</time>
   <time name="orth">    3.10    3.10</time>
   <time name="total">  451.61  452.43</time>
   <energy>
    <i name="e_fr_energy">    -36.91404699 </i>
    <i name="e_wo_entrp">    -36.91401942 </i>
    <i name="e_0_energy">    -36.91403320 </i>
   </energy>
  </scstep>
  <scstep>
   <time name="diag">   79.65   79.66</time>
   <time name="diis">  267.62  268.19</time>
   <time name="orth">    3.08    3.10</time>
   <time name="total">  382.79  383.68</time>
   <energy>
    <i name="e_fr_energy">    -36.91404699 </i>
    <i name="e_wo_entrp">    -36.91401942 </i>
    <i name="e_0_energy">    -36.91403321 </i>
   </energy>
  </scstep>
  <scstep>
   <time name="diag">   79.52   79.64</time>
   <time name="diis">  221.86  221.90</time>
   <time name="orth">    3.10    3.10</time>
   <time name="total">  306.89  307.12</time>
   <energy>
    <i name="alphaZ">      6.18334092 </i>
    <i name="ewald">   2529.75532677 </i>
    <i name="hartreedc">  -3023.84244283 </i>
    <i name="XCdc">     57.36579522 </i>
    <i name="pawpsdc">    273.64541650 </i>
    <i name="pawaedc">   -278.77867066 </i>
    <i name="eentropy">     -0.00002757 </i>
    <i name="bandstr">   -189.86631224 </i>
    <i name="atom">    588.62352690 </i>
    <i name="e_fr_energy">    -36.91404699 </i>
    <i name="e_wo_entrp">    -36.91401942 </i>
    <i name="e_0_energy">    -36.91403320 </i>
   </energy>
  </scstep>
  <structure>
   <crystal>
    <varray name="basis" >
     <v>       4.31706015       0.00000000       0.00000000 </v>
     <v>       0.00000000       2.46273859       0.00000000 </v>
     <v>       0.00000000       0.00000000      19.83089291 </v>
    </varray>
    <i name="volume">    210.83790140 </i>
    <varray name="rec_basis" >
     <v>       0.23163912       0.00000000       0.00000000 </v>
     <v>       0.00000000       0.40605203       0.00000000 </v>
     <v>       0.00000000       0.00000000       0.05042637 </v>
    </varray>
   </crystal>
   <varray name="positions" >
    <v>       0.99975040       0.00000000       0.00000000 </v>
    <v>       0.16691627       0.50000000      -0.00000000 </v>
    <v>       0.49975040       0.50000000       0.00000000 </v>
    <v>       0.66691627       0.00000000      -0.00000000 </v>
   </varray>
  </structure>
  <varray name="forces" >
   <v>       0.00001770       0.00000000       0.00000000 </v>
   <v>      -0.00001770      -0.00000000      -0.00000000 </v>
   <v>       0.00001770       0.00000000       0.00000000 </v>
   <v>      -0.00001770      -0.00000000      -0.00000000 </v>
  </varray>
  <varray name="stress" >
   <v>     -17.08827994       0.00000000       0.00000000 </v>
   <v>       0.00000000       0.00462307       0.00000000 </v>
   <v>       0.00000000       0.00000000      -0.01012133 </v>
  </varray>
  <energy>
   <i name="e_fr_energy">    -36.91404699 </i>
   <i name="e_wo_entrp">    -36.91403320 </i>
   <i name="e_0_energy">     -0.00002757 </i>
  </energy>
  <time name="totalsc"> 2477.97 2503.69</time>
 </calculation>
 <calculation>
  <scstep>
   <time name="dav">  318.79  318.98</time>
   <time name="total">  351.39  351.58</time>
   <energy>
    <i name="alphaZ">      6.18334092 </i>
    <i name="ewald">   2529.75532831 </i>
    <i name="hartreedc">  -3023.84244910 </i>
    <i name="XCdc">     57.36579541 </i>
    <i name="pawpsdc">    273.64541994 </i>
    <i name="pawaedc">   -278.77867413 </i>
    <i name="eentropy">     -0.00002756 </i>
    <i name="bandstr">   -189.86630769 </i>
    <i name="atom">    588.62352690 </i>
    <i name="e_fr_energy">    -36.91404699 </i>
    <i name="e_wo_entrp">    -36.91401942 </i>
    <i name="e_0_energy">    -36.91403321 </i>
   </energy>
  </scstep>
  <scstep>
   <time name="diag">   79.61   79.63</time>
   <time name="diis">  191.12  191.67</time>
   <time name="orth">    3.08    3.10</time>
   <time name="total">  306.30  307.03</time>
   <energy>
    <i name="e_fr_energy">    -36.91404699 </i>
    <i name="e_wo_entrp">    -36.91401942 </i>
    <i name="e_0_energy">    -36.91403321 </i>
   </energy>
  </scstep>
  <scstep>
   <time name="diag">   79.61   79.63</time>
   <time name="diis">  182.27  182.97</time>
   <time name="orth">    3.08    3.10</time>
   <time name="total">  297.59  300.27</time>
   <energy>
    <i name="e_fr_energy">    -36.91404699 </i>
    <i name="e_wo_entrp">    -36.91401942 </i>
    <i name="e_0_energy">    -36.91403321 </i>
   </energy>
  </scstep>
  <scstep>
   <time name="diag">   79.23   79.64</time>
   <time name="diis">  175.01  175.29</time>
   <time name="orth">    3.08    3.08</time>
   <time name="total">  289.62  293.42</time>
   <energy>
    <i name="e_fr_energy">    -36.91404699 </i>
    <i name="e_wo_entrp">    -36.91401942 </i>
    <i name="e_0_energy">    -36.91403321 </i>
   </energy>
  </scstep>
  <scstep>
   <time name="diag">   79.60   79.62</time>
   <time name="diis">  172.72  172.77</time>
   <time name="orth">    3.08    3.08</time>
   <time name="total">  288.17  290.34</time>
   <energy>
    <i name="e_fr_energy">    -36.91404699 </i>
    <i name="e_wo_entrp">    -36.91401942 </i>
    <i name="e_0_energy">    -36.91403321 </i>
   </energy>
  </scstep>
  <scstep>
   <time name="diag">   79.61   79.64</time>
   <time name="diis">  171.74  171.80</time>
   <time name="orth">    3.10    3.10</time>
   <time name="total">  287.00  297.13</time>
   <energy>
    <i name="e_fr_energy">    -36.91404699 </i>
    <i name="e_wo_entrp">    -36.91401942 </i>
    <i name="e_0_energy">    -36.91403321 </i>
   </energy>
  </scstep>
  <scstep>
   <time name="diag">   79.64   79.66</time>
   <time name="diis">  164.23  164.27</time>
   <time name="orth">    3.09    3.10</time>
   <time name="total">  279.23  283.22</time>
   <energy>
    <i name="e_fr_energy">    -36.91404699 </i>
    <i name="e_wo_entrp">    -36.91401942 </i>
    <i name="e_0_energy">    -36.91403321 </i>
   </energy>
  </scstep>
  <scstep>
   <time name="diag">   79.58   79.65</time>
   <time name="diis">  163.46  163.50</time>
   <time name="orth">    3.10    3.10</time>
   <time name="total">  278.71  282.12</time>
   <energy>
    <i name="e_fr_energy">    -36.91404699 </i>
    <i name="e_wo_entrp">    -36.91401942 </i>
    <i name="e_0_energy">    -36.91403321 </i>
   </energy>
  </scstep>
  <scstep>
   <time name="diag">   79.62   79.63</time>
   <time name="diis">  158.29  158.63</time>
   <time name="orth">    3.08    3.08</time>
   <time name="total">  243.42  251.70</time>
   <energy>
    <i name="alphaZ">      6.18334092 </i>
    <i name="ewald">   2529.75532831 </i>
    <i name="hartreedc">  -3023.84245993 </i>
    <i name="XCdc">     57.36579549 </i>
    <i name="pawpsdc">    273.64542522 </i>
    <i name="pawaedc">   -278.77867933 </i>
    <i name="eentropy">     -0.00002756 </i>
    <i name="bandstr">   -189.86629700 </i>
    <i name="atom">    588.62352690 </i>
    <i name="e_fr_energy">    -36.91404699 </i>
    <i name="e_wo_entrp">    -36.91401942 </i>
    <i name="e_0_energy">    -36.91403321 </i>
   </energy>
  </scstep>
  <structure>
   <crystal>
    <varray name="basis" >
     <v>       4.31706015       0.00000000       0.00000000 </v>
     <v>       0.00000000       2.46273859       0.00000000 </v>
     <v>       0.00000000       0.00000000      19.83089291 </v>
    </varray>
    <i name="volume">    210.83790140 </i>
    <varray name="rec_basis" >
     <v>       0.23163912       0.00000000       0.00000000 </v>
     <v>       0.00000000       0.40605203       0.00000000 </v>
     <v>       0.00000000       0.00000000       0.05042637 </v>
    </varray>
   </crystal>
   <varray name="positions" >
    <v>       0.99975044       0.00000000       0.00000000 </v>
    <v>       0.16691623       0.50000000      -0.00000000 </v>
    <v>       0.49975044       0.50000000       0.00000000 </v>
    <v>       0.66691623       0.00000000      -0.00000000 </v>
   </varray>
  </structure>
  <varray name="forces" >
   <v>      -0.00001119       0.00000000       0.00000000 </v>
   <v>       0.00001119      -0.00000000      -0.00000000 </v>
   <v>      -0.00001119       0.00000000       0.00000000 </v>
   <v>       0.00001119      -0.00000000      -0.00000000 </v>
  </varray>
  <varray name="stress" >
   <v>     -17.08846570       0.00000000       0.00000000 </v>
   <v>       0.00000000       0.00482060       0.00000000 </v>
   <v>       0.00000000       0.00000000      -0.01015373 </v>
  </varray>
  <energy>
   <i name="e_fr_energy">    -36.91404699 </i>
   <i name="e_wo_entrp">    -36.91403321 </i>
   <i name="e_0_energy">     -0.00002756 </i>
  </energy>
  <time name="totalsc"> 2723.02 2775.95</time>
 </calculation>
 <calculation>
  <scstep>
   <time name="dav">  261.65  261.91</time>
   <time name="total">  294.05  294.34</time>
   <energy>
    <i name="alphaZ">      6.18334092 </i>
    <i name="ewald">   2529.75532771 </i>
    <i name="hartreedc">  -3023.84245984 </i>
    <i name="XCdc">     57.36579548 </i>
    <i name="pawpsdc">    273.64542552 </i>
    <i name="pawaedc">   -278.77867964 </i>
    <i name="eentropy">     -0.00002757 </i>
    <i name="bandstr">   -189.86629649 </i>
    <i name="atom">    588.62352690 </i>
    <i name="e_fr_energy">    -36.91404699 </i>
    <i name="e_wo_entrp">    -36.91401942 </i>
    <i name="e_0_energy">    -36.91403320 </i>
   </energy>
  </scstep>
  <scstep>
   <time name="diag">   79.70   79.73</time>
   <time name="diis">  162.21  162.27</time>
   <time name="orth">    3.08    3.08</time>
   <time name="total">  277.37  277.49</time>
   <energy>
    <i name="e_fr_energy">    -36.91404699 </i>
    <i name="e_wo_entrp">    -36.91401942 </i>
    <i name="e_0_energy">    -36.91403320 </i>
   </energy>
  </scstep>
  <scstep>
   <time name="diag">   79.25   79.65</time>
   <time name="diis">  156.18  156.94</time>
   <time name="orth">    3.08    3.08</time>
   <time name="total">  270.96  274.94</time>
   <energy>
    <i name="e_fr_energy">    -36.91404699 </i>
    <i name="e_wo_entrp">    -36.91401942 </i>
    <i name="e_0_energy">    -36.91403320 </i>
   </energy>
  </scstep>
  <scstep>
   <time name="diag">   79.21   79.62</time>
   <time name="diis">  155.31  155.40</time>
   <time name="orth">    3.09    3.09</time>
   <time name="total">  270.01  270.62</time>
   <energy>
    <i name="e_fr_energy">    -36.91404699 </i>
    <i name="e_wo_entrp">    -36.91401942 </i>
    <i name="e_0_energy">    -36.91403321 </i>
   </energy>
  </scstep>
  <scstep>
   <time name="diag">   79.61   79.64</time>
   <time name="diis">  152.89  152.94</time>
   <time name="orth">    3.08    3.08</time>
   <time name="total">  268.17  268.27</time>
   <energy>
    <i name="e_fr_energy">    -36.91404699 </i>
    <i name="e_wo_entrp">    -36.91401942 </i>
    <i name="e_0_energy">    -36.91403320 </i>
   </energy>
  </scstep>
  <scstep>
   <time name="diag">   79.62   79.66</time>
   <time name="diis">  149.81  149.94</time>
   <time name="orth">    3.07    3.08</time>
   <time name="total">  234.97  235.20</time>
   <energy>
    <i name="alphaZ">      6.18334092 </i>
    <i name="ewald">   2529.75532771 </i>
    <i name="hartreedc">  -3023.84245971 </i>
    <i name="XCdc">     57.36579549 </i>
    <i name="pawpsdc">    273.64542659 </i>
    <i name="pawaedc">   -278.77868074 </i>
    <i name="eentropy">     -0.00002757 </i>
    <i name="bandstr">   -189.86629659 </i>
    <i name="atom">    588.62352690 </i>
    <i name="e_fr_energy">    -36.91404699 </i>
    <i name="e_wo_entrp">    -36.91401942 </i>
    <i name="e_0_energy">    -36.91403320 </i>
   </energy>
  </scstep>
  <structure>
   <crystal>
    <varray name="basis" >
     <v>       4.31706015       0.00000000       0.00000000 </v>
     <v>       0.00000000       2.46273859       0.00000000 </v>
     <v>       0.00000000       0.00000000      19.83089291 </v>
    </varray>
    <i name="volume">    210.83790140 </i>
    <varray name="rec_basis" >
     <v>       0.23163912       0.00000000       0.00000000 </v>
     <v>       0.00000000       0.40605203       0.00000000 </v>
     <v>       0.00000000       0.00000000       0.05042637 </v>
    </varray>
   </crystal>
   <varray name="positions" >
    <v>       0.99975042       0.00000000       0.00000000 </v>
    <v>       0.16691624       0.50000000      -0.00000000 </v>
    <v>       0.49975042       0.50000000       0.00000000 </v>
    <v>       0.66691624       0.00000000      -0.00000000 </v>
   </varray>
  </structure>
  <varray name="forces" >
   <v>      -0.00000026       0.00000000       0.00000000 </v>
   <v>       0.00000026      -0.00000000      -0.00000000 </v>
   <v>      -0.00000026       0.00000000       0.00000000 </v>
   <v>       0.00000026       0.00000000      -0.00000000 </v>
  </varray>
  <varray name="stress" >
   <v>     -17.08842801       0.00000000       0.00000000 </v>
   <v>       0.00000000       0.00478093       0.00000000 </v>
   <v>       0.00000000       0.00000000      -0.01015919 </v>
  </varray>
  <energy>
   <i name="e_fr_energy">    -36.91404699 </i>
   <i name="e_wo_entrp">    -36.91403320 </i>
   <i name="e_0_energy">     -0.00002757 </i>
  </energy>
  <time name="totalsc"> 1710.62 1738.49</time>
  <eigenvalues>
   <array>
    <dimension dim="1">band</dimension>
    <dimension dim="2">kpoint</dimension>
    <dimension dim="3">spin</dimension>
    <field>eigene</field>
    <field>occ</field>
    <set>
     <set comment="spin 1">
      <set comment="kpoint 1">
       <r>  -22.1829    1.0000 </r>
       <r>  -17.1217    1.0000 </r>
       <r>  -15.9179    1.0000 </r>
       <r>  -10.3043    1.0000 </r>
       <r>   -9.0097    1.0000 </r>
       <r>   -5.8796    1.0000 </r>
       <r>   -5.7606    1.0000 </r>
       <r>   -5.2052    1.0000 </r>
       <r>   -1.1228    0.0000 </r>
       <r>    0.5323    0.0000 </r>
       <r>    1.3322    0.0000 </r>
       <r>    1.7193    0.0000 </r>
      </set>
      <set comment="kpoint 2">
       <r>  -22.1729    1.0000 </r>
       <r>  -17.2647    1.0000 </r>
       <r>  -15.7597    1.0000 </r>
       <r>  -10.2924    1.0000 </r>
       <r>   -8.9998    1.0000 </r>
       <r>   -5.9230    1.0000 </r>
       <r>   -5.7821    1.0000 </r>
       <r>   -5.2684    1.0000 </r>
       <r>   -1.0437    0.0000 </r>
       <r>    0.5459    0.0000 </r>
       <r>    1.3460    0.0000 </r>
       <r>    1.7332    0.0000 </r>
      </set>
      <set comment="kpoint 3">
       <r>  -22.1428    1.0000 </r>
       <r>  -17.5744    1.0000 </r>
       <r>  -15.4046    1.0000 </r>
       <r>  -10.2565    1.0000 </r>
       <r>   -8.9702    1.0000 </r>
       <r>   -6.0513    1.0000 </r>
       <r>   -5.8455    1.0000 </r>
       <r>   -5.4444    1.0000 </r>
       <r>   -0.8202    0.0000 </r>
       <r>    0.5867    0.0000 </r>
       <r>    1.3874    0.0000 </r>
       <r>    1.7751    0.0000 </r>
      </set>
      <set comment="kpoint 4">
       <r>  -22.0926    1.0000 </r>
       <r>  -17.9320    1.0000 </r>
       <r>  -14.9716    1.0000 </r>
       <r>  -10.1967    1.0000 </r>
       <r>   -8.9211    1.0000 </r>
       <r>   -6.2592    1.0000 </r>
       <r>   -5.9474    1.0000 </r>
       <r>   -5.7025    1.0000 </r>
       <r>   -0.4834    0.0000 </r>
       <r>    0.6548    0.0000 </r>
       <r>    1.4563    0.0000 </r>
       <r>    1.8449    0.0000 </r>
      </set>
      <set comment="kpoint 5">
       <r>  -22.0223    1.0000 </r>
       <r>  -18.2973    1.0000 </r>
       <r>  -14.5015    1.0000 </r>
       <r>  -10.1132    1.0000 </r>
       <r>   -8.8527    1.0000 </r>
       <r>   -6.5386    1.0000 </r>
       <r>   -6.0831    1.0000 </r>
       <r>   -6.0116    1.0000 </r>
       <r>   -0.0654    0.0000 </r>
       <r>    0.7501    0.0000 </r>
       <r>    1.5528    0.0000 </r>
       <r>    1.9427    0.0000 </r>
      </set>
      <set comment="kpoint 6">
       <r>  -21.9321    1.0000 </r>
       <r>  -18.6567    1.0000 </r>
       <r>  -14.0083    1.0000 </r>
       <r>  -10.0061    1.0000 </r>
       <r>   -8.7653    1.0000 </r>
       <r>   -6.8803    1.0000 </r>
       <r>   -6.3481    1.0000 </r>
       <r>   -6.2465    1.0000 </r>
       <r>    0.4091    0.0000 </r>
       <r>    0.8727    0.0000 </r>
       <r>    1.6768    0.0000 </r>
       <r>    2.0684    0.0000 </r>
      </set>
      <set comment="kpoint 7">
       <r>  -21.8220    1.0000 </r>
       <r>  -19.0044    1.0000 </r>
       <r>  -13.4986    1.0000 </r>
       <r>   -9.8756    1.0000 </r>
       <r>   -8.6596    1.0000 </r>
       <r>   -7.2743    1.0000 </r>
       <r>   -6.6960    1.0000 </r>
       <r>   -6.4314    1.0000 </r>
       <r>    0.9224    0.0000 </r>
       <r>    1.0225    0.0000 </r>
       <r>    1.8283    0.0000 </r>
       <r>    2.2220    0.0000 </r>
      </set>
      <set comment="kpoint 8">
       <r>  -21.6921    1.0000 </r>
       <r>  -19.3378    1.0000 </r>
       <r>  -12.9761    1.0000 </r>
       <r>   -9.7218    1.0000 </r>
       <r>   -8.5360    1.0000 </r>
       <r>   -7.7112    1.0000 </r>
       <r>   -7.0446    1.0000 </r>
       <r>   -6.6317    1.0000 </r>
       <r>    1.1995    0.0000 </r>
       <r>    1.4619    0.0000 </r>
       <r>    2.0071    0.0000 </r>
       <r>    2.4036    0.0000 </r>
      </set>
      <set comment="kpoint 9">
       <r>  -21.5424    1.0000 </r>
       <r>  -19.6551    1.0000 </r>
       <r>  -12.4438    1.0000 </r>
       <r>   -9.5452    1.0000 </r>
       <r>   -8.3956    1.0000 </r>
       <r>   -8.1822    1.0000 </r>
       <r>   -7.3871    1.0000 </r>
       <r>   -6.8417    1.0000 </r>
       <r>    1.4037    0.0000 </r>
       <r>    2.0176    0.0000 </r>
       <r>    2.2132    0.0000 </r>
       <r>    2.6131    0.0000 </r>
      </set>
      <set comment="kpoint 10">
       <r>  -21.3731    1.0000 </r>
       <r>  -19.9556    1.0000 </r>
       <r>  -11.9041    1.0000 </r>
       <r>   -9.3462    1.0000 </r>
       <r>   -8.6797    1.0000 </r>
       <r>   -8.2392    1.0000 </r>
       <r>   -7.7187    1.0000 </r>
       <r>   -7.0564    1.0000 </r>
       <r>    1.6350    0.0000 </r>
       <r>    2.4462    0.0000 </r>
       <r>    2.5802    0.0000 </r>
       <r>    2.8505    0.0000 </r>
      </set>
      <set comment="kpoint 11">
       <r>  -21.1843    1.0000 </r>
       <r>  -20.2383    1.0000 </r>
       <r>  -11.3598    1.0000 </r>
       <r>   -9.1970    1.0000 </r>
       <r>   -9.1251    1.0000 </r>
       <r>   -8.0680    1.0000 </r>
       <r>   -8.0362    1.0000 </r>
       <r>   -7.2714    1.0000 </r>
       <r>    1.8934    0.0000 </r>
       <r>    2.7056    0.0000 </r>
       <r>    3.1158    0.0000 </r>
       <r>    3.1343    0.0000 </r>
      </set>
      <set comment="kpoint 12">
       <r>  -20.9762    1.0000 </r>
       <r>  -20.5029    1.0000 </r>
       <r>  -10.8135    1.0000 </r>
       <r>   -9.7282    1.0000 </r>
       <r>   -8.8827    1.0000 </r>
       <r>   -8.3370    1.0000 </r>
       <r>   -7.8837    1.0000 </r>
       <r>   -7.4830    1.0000 </r>
       <r>    2.1788    0.0000 </r>
       <r>    2.8300    0.0000 </r>
       <r>    2.9899    0.0000 </r>
       <r>    3.4090    0.0000 </r>
      </set>
      <set comment="kpoint 13">
       <r>  -20.7490    1.0000 </r>
       <r>  -20.7490    1.0000 </r>
       <r>  -10.2684    1.0000 </r>
       <r>  -10.2684    1.0000 </r>
       <r>   -8.6196    1.0000 </r>
       <r>   -8.6196    1.0000 </r>
       <r>   -7.6879    1.0000 </r>
       <r>   -7.6879    1.0000 </r>
       <r>    2.4911    0.0000 </r>
       <r>    2.4911    0.0000 </r>
       <r>    3.2925    0.0000 </r>
       <r>    3.2925    0.0000 </r>
      </set>
      <set comment="kpoint 14">
       <r>  -22.1692    1.0000 </r>
       <r>  -17.1098    1.0000 </r>
       <r>  -15.9062    1.0000 </r>
       <r>  -10.2880    1.0000 </r>
       <r>   -9.0720    1.0000 </r>
       <r>   -5.9080    1.0000 </r>
       <r>   -5.8183    1.0000 </r>
       <r>   -5.1886    1.0000 </r>
       <r>   -1.1261    0.0000 </r>
       <r>    0.5509    0.0000 </r>
       <r>    1.3510    0.0000 </r>
       <r>    1.7383    0.0000 </r>
      </set>
      <set comment="kpoint 15">
       <r>  -22.1592    1.0000 </r>
       <r>  -17.2527    1.0000 </r>
       <r>  -15.7482    1.0000 </r>
       <r>  -10.2760    1.0000 </r>
       <r>   -9.0621    1.0000 </r>
       <r>   -5.9548    1.0000 </r>
       <r>   -5.8359    1.0000 </r>
       <r>   -5.2519    1.0000 </r>
       <r>   -1.0470    0.0000 </r>
       <r>    0.5645    0.0000 </r>
       <r>    1.3648    0.0000 </r>
       <r>    1.7523    0.0000 </r>
      </set>
      <set comment="kpoint 16">
       <r>  -22.1290    1.0000 </r>
[...]
       <r>   -9.2718    1.0000 </r>
       <r>   -5.5619    1.0000 </r>
       <r>   -5.5619    1.0000 </r>
       <r>   -0.4493    0.0000 </r>
       <r>   -0.4493    0.0000 </r>
       <r>    4.5476    0.0000 </r>
       <r>    4.5476    0.0000 </r>
      </set>
      <set comment="kpoint 209">
       <r>  -18.7500    1.0000 </r>
       <r>  -16.9481    1.0000 </r>
       <r>  -14.1200    1.0000 </r>
       <r>  -12.4755    1.0000 </r>
       <r>  -12.3718    1.0000 </r>
       <r>  -10.8472    1.0000 </r>
       <r>   -6.3600    1.0000 </r>
       <r>   -4.4745    1.0000 </r>
       <r>   -1.0755    0.0000 </r>
       <r>    1.0895    0.0000 </r>
       <r>    5.2771    0.0000 </r>
       <r>    6.0578    0.0000 </r>
      </set>
      <set comment="kpoint 210">
       <r>  -18.7405    1.0000 </r>
       <r>  -16.9406    1.0000 </r>
       <r>  -14.1976    1.0000 </r>
       <r>  -12.5476    1.0000 </r>
       <r>  -12.2865    1.0000 </r>
       <r>  -10.7775    1.0000 </r>
       <r>   -6.3514    1.0000 </r>
       <r>   -4.4779    1.0000 </r>
       <r>   -1.0837    0.0000 </r>
       <r>    1.0651    0.0000 </r>
       <r>    5.2904    0.0000 </r>
       <r>    6.0734    0.0000 </r>
      </set>
      <set comment="kpoint 211">
       <r>  -18.7120    1.0000 </r>
       <r>  -16.9184    1.0000 </r>
       <r>  -14.3946    1.0000 </r>
       <r>  -12.7337    1.0000 </r>
       <r>  -12.0664    1.0000 </r>
       <r>  -10.5992    1.0000 </r>
       <r>   -6.3257    1.0000 </r>
       <r>   -4.4885    1.0000 </r>
       <r>   -1.1068    0.0000 </r>
       <r>    0.9939    0.0000 </r>
       <r>    5.3301    0.0000 </r>
       <r>    6.1201    0.0000 </r>
      </set>
      <set comment="kpoint 212">
       <r>  -18.6646    1.0000 </r>
       <r>  -16.8828    1.0000 </r>
       <r>  -14.6517    1.0000 </r>
       <r>  -12.9831    1.0000 </r>
       <r>  -11.7709    1.0000 </r>
       <r>  -10.3650    1.0000 </r>
       <r>   -6.2832    1.0000 </r>
       <r>   -4.5078    1.0000 </r>
       <r>   -1.1399    0.0000 </r>
       <r>    0.8806    0.0000 </r>
       <r>    5.3960    0.0000 </r>
       <r>    6.1967    0.0000 </r>
      </set>
      <set comment="kpoint 213">
       <r>  -18.5984    1.0000 </r>
       <r>  -16.8364    1.0000 </r>
       <r>  -14.9288    1.0000 </r>
       <r>  -13.2615    1.0000 </r>
       <r>  -11.4396    1.0000 </r>
       <r>  -10.1126    1.0000 </r>
       <r>   -6.2242    1.0000 </r>
       <r>   -4.5379    1.0000 </r>
       <r>   -1.1761    0.0000 </r>
       <r>    0.7324    0.0000 </r>
       <r>    5.4859    0.0000 </r>
       <r>    6.3040    0.0000 </r>
      </set>
      <set comment="kpoint 214">
       <r>  -18.5136    1.0000 </r>
       <r>  -16.7849    1.0000 </r>
       <r>  -15.2014    1.0000 </r>
       <r>  -13.5505    1.0000 </r>
       <r>  -11.0948    1.0000 </r>
       <r>   -9.8647    1.0000 </r>
       <r>   -6.1497    1.0000 </r>
       <r>   -4.5812    1.0000 </r>
       <r>   -1.2071    0.0000 </r>
       <r>    0.5573    0.0000 </r>
       <r>    5.5813    0.0000 </r>
       <r>    5.8632    0.0000 </r>
      </set>
      <set comment="kpoint 215">
       <r>  -18.4105    1.0000 </r>
       <r>  -16.7393    1.0000 </r>
       <r>  -15.4483    1.0000 </r>
       <r>  -13.8400    1.0000 </r>
       <r>  -10.7508    1.0000 </r>
       <r>   -9.6370    1.0000 </r>
       <r>   -6.0604    1.0000 </r>
       <r>   -4.6401    1.0000 </r>
       <r>   -1.2247    0.0000 </r>
       <r>    0.3638    0.0000 </r>
       <r>    5.3656    0.0000 </r>
       <r>    5.7887    0.0000 </r>
      </set>
      <set comment="kpoint 216">
       <r>  -18.2896    1.0000 </r>
       <r>  -16.7214    1.0000 </r>
       <r>  -15.6423    1.0000 </r>
       <r>  -14.1240    1.0000 </r>
       <r>  -10.4181    1.0000 </r>
       <r>   -9.4417    1.0000 </r>
       <r>   -5.9577    1.0000 </r>
       <r>   -4.7159    1.0000 </r>
       <r>   -1.2217    0.0000 </r>
       <r>    0.1597    0.0000 </r>
       <r>    5.0058    0.0000 </r>
       <r>    5.9510    0.0000 </r>
      </set>
      <set comment="kpoint 217">
       <r>  -18.1513    1.0000 </r>
       <r>  -16.7634    1.0000 </r>
       <r>  -15.7481    1.0000 </r>
       <r>  -14.3984    1.0000 </r>
       <r>  -10.1063    1.0000 </r>
       <r>   -9.2893    1.0000 </r>
       <r>   -5.8429    1.0000 </r>
       <r>   -4.8088    1.0000 </r>
       <r>   -1.1929    0.0000 </r>
       <r>   -0.0477    0.0000 </r>
       <r>    4.7120    0.0000 </r>
       <r>    5.5315    0.0000 </r>
      </set>
      <set comment="kpoint 218">
       <r>  -17.9965    1.0000 </r>
       <r>  -16.8809    1.0000 </r>
       <r>  -15.7480    1.0000 </r>
       <r>  -14.6601    1.0000 </r>
       <r>   -9.8245    1.0000 </r>
       <r>   -9.1884    1.0000 </r>
       <r>   -5.7181    1.0000 </r>
       <r>   -4.9176    1.0000 </r>
       <r>   -1.1354    0.0000 </r>
       <r>   -0.2520    0.0000 </r>
       <r>    4.5003    0.0000 </r>
       <r>    5.1404    0.0000 </r>
      </set>
      <set comment="kpoint 219">
       <r>  -17.8263    1.0000 </r>
       <r>  -17.0526    1.0000 </r>
       <r>  -15.6621    1.0000 </r>
       <r>  -14.9064    1.0000 </r>
       <r>   -9.5817    1.0000 </r>
       <r>   -9.1454    1.0000 </r>
       <r>   -5.5856    1.0000 </r>
       <r>   -5.0396    1.0000 </r>
       <r>   -1.0486    0.0000 </r>
       <r>   -0.4476    0.0000 </r>
       <r>    4.3784    0.0000 </r>
       <r>    4.8183    0.0000 </r>
      </set>
      <set comment="kpoint 220">
       <r>  -17.6425    1.0000 </r>
       <r>  -17.2480    1.0000 </r>
       <r>  -15.5201    1.0000 </r>
       <r>  -15.1346    1.0000 </r>
       <r>   -9.3863    1.0000 </r>
       <r>   -9.1642    1.0000 </r>
       <r>   -5.4480    1.0000 </r>
       <r>   -5.1713    1.0000 </r>
       <r>   -0.9335    0.0000 </r>
       <r>   -0.6293    0.0000 </r>
       <r>    4.3502    0.0000 </r>
       <r>    4.5744    0.0000 </r>
      </set>
      <set comment="kpoint 221">
       <r>  -17.4480    1.0000 </r>
       <r>  -17.4480    1.0000 </r>
       <r>  -15.3410    1.0000 </r>
       <r>  -15.3410    1.0000 </r>
       <r>   -9.2453    1.0000 </r>
       <r>   -9.2453    1.0000 </r>
       <r>   -5.3087    1.0000 </r>
       <r>   -5.3087    1.0000 </r>
       <r>   -0.7926    0.0000 </r>
       <r>   -0.7926    0.0000 </r>
       <r>    4.4165    0.0000 </r>
       <r>    4.4165    0.0000 </r>
      </set>
      <set comment="kpoint 222">
       <r>  -18.3247    1.0000 </r>
       <r>  -17.4201    1.0000 </r>
       <r>  -13.7393    1.0000 </r>
       <r>  -12.9163    1.0000 </r>
       <r>  -12.0227    1.0000 </r>
       <r>  -11.2555    1.0000 </r>
       <r>   -5.9001    1.0000 </r>
       <r>   -4.9518    1.0000 </r>
       <r>   -0.5672    0.0000 </r>
       <r>    0.5174    0.0000 </r>
       <r>    5.8799    0.0000 </r>
       <r>    6.6204    0.0000 </r>
      </set>
      <set comment="kpoint 223">
       <r>  -18.3154    1.0000 </r>
       <r>  -17.4115    1.0000 </r>
       <r>  -13.8171    1.0000 </r>
       <r>  -12.9908    1.0000 </r>
       <r>  -11.9399    1.0000 </r>
       <r>  -11.1809    1.0000 </r>
       <r>   -5.8928    1.0000 </r>
       <r>   -4.9497    1.0000 </r>
       <r>   -0.5822    0.0000 </r>
       <r>    0.4952    0.0000 </r>
       <r>    5.8932    0.0000 </r>
       <r>    6.6369    0.0000 </r>
      </set>
      <set comment="kpoint 224">
       <r>  -18.2874    1.0000 </r>
       <r>  -17.3858    1.0000 </r>
       <r>  -14.0153    1.0000 </r>
       <r>  -13.1822    1.0000 </r>
       <r>  -11.7271    1.0000 </r>
       <r>  -10.9894    1.0000 </r>
       <r>   -5.8711    1.0000 </r>
       <r>   -4.9438    1.0000 </r>
       <r>   -0.6257    0.0000 </r>
       <r>    0.4301    0.0000 </r>
       <r>    5.9328    0.0000 </r>
       <r>    6.6861    0.0000 </r>
      </set>
      <set comment="kpoint 225">
       <r>  -18.2408    1.0000 </r>
       <r>  -17.3436    1.0000 </r>
       <r>  -14.2761    1.0000 </r>
       <r>  -13.4371    1.0000 </r>
       <r>  -11.4432    1.0000 </r>
       <r>  -10.7365    1.0000 </r>
       <r>   -5.8354    1.0000 </r>
       <r>   -4.9352    1.0000 </r>
       <r>   -0.6928    0.0000 </r>
       <r>    0.3269    0.0000 </r>
       <r>    5.9979    0.0000 </r>
       <r>    6.7666    0.0000 </r>
      </set>
      <set comment="kpoint 226">
       <r>  -18.1760    1.0000 </r>
       <r>  -17.2857    1.0000 </r>
       <r>  -14.5617    1.0000 </r>
       <r>  -13.7201    1.0000 </r>
       <r>  -11.1273    1.0000 </r>
       <r>  -10.4603    1.0000 </r>
       <r>   -5.7864    1.0000 </r>
       <r>   -4.9256    1.0000 </r>
       <r>   -0.7763    0.0000 </r>
       <r>    0.1928    0.0000 </r>
       <r>    6.0837    0.0000 </r>
       <r>    6.6182    0.0000 </r>
      </set>
      <set comment="kpoint 227">
       <r>  -18.0931    1.0000 </r>
       <r>  -17.2137    1.0000 </r>
       <r>  -14.8518    1.0000 </r>
       <r>  -14.0124    1.0000 </r>
       <r>  -10.8021    1.0000 </r>
       <r>  -10.1836    1.0000 </r>
       <r>   -5.7252    1.0000 </r>
       <r>   -4.9175    1.0000 </r>
       <r>   -0.8674    0.0000 </r>
       <r>    0.0359    0.0000 </r>
       <r>    6.0385    0.0000 </r>
       <r>    6.2641    0.0000 </r>
      </set>
      <set comment="kpoint 228">
       <r>  -17.9927    1.0000 </r>
       <r>  -17.1305    1.0000 </r>
       <r>  -15.1337    1.0000 </r>
       <r>  -14.3038    1.0000 </r>
       <r>  -10.4820    1.0000 </r>
       <r>   -9.9217    1.0000 </r>
       <r>   -5.6534    1.0000 </r>
       <r>   -4.9139    1.0000 </r>
       <r>   -0.9565    0.0000 </r>
       <r>   -0.1351    0.0000 </r>
       <r>    5.6004    0.0000 </r>
       <r>    6.1573    0.0000 </r>
      </set>
      <set comment="kpoint 229">
       <r>  -17.8755    1.0000 </r>
       <r>  -17.0415    1.0000 </r>
       <r>  -15.3963    1.0000 </r>
       <r>  -14.5879    1.0000 </r>
       <r>  -10.1782    1.0000 </r>
       <r>   -9.6867    1.0000 </r>
       <r>   -5.5727    1.0000 </r>
       <r>   -4.9180    1.0000 </r>
       <r>   -1.0343    0.0000 </r>
       <r>   -0.3116    0.0000 </r>
       <r>    5.1929    0.0000 </r>
       <r>    5.6830    0.0000 </r>
      </set>
      <set comment="kpoint 230">
       <r>  -17.7425    1.0000 </r>
       <r>  -16.9577    1.0000 </r>
       <r>  -15.6256    1.0000 </r>
       <r>  -14.8603    1.0000 </r>
       <r>   -9.9006    1.0000 </r>
       <r>   -9.4890    1.0000 </r>
       <r>   -5.4854    1.0000 </r>
       <r>   -4.9331    1.0000 </r>
       <r>   -1.0924    0.0000 </r>
       <r>   -0.4859    0.0000 </r>
       <r>    4.8521    0.0000 </r>
       <r>    5.2643    0.0000 </r>
      </set>
      <set comment="kpoint 231">
       <r>  -17.5956    1.0000 </r>
       <r>  -16.9004    1.0000 </r>
       <r>  -15.7981    1.0000 </r>
       <r>  -15.1171    1.0000 </r>
       <r>   -9.6586    1.0000 </r>
       <r>   -9.3378    1.0000 </r>
       <r>   -5.3945    1.0000 </r>
       <r>   -4.9615    1.0000 </r>
       <r>   -1.1238    0.0000 </r>
       <r>   -0.6505    0.0000 </r>
       <r>    4.5892    0.0000 </r>
       <r>    4.9114    0.0000 </r>
      </set>
      <set comment="kpoint 232">
       <r>  -17.4376    1.0000 </r>
       <r>  -16.9019    1.0000 </r>
       <r>  -15.8802    1.0000 </r>
       <r>  -15.3538    1.0000 </r>
       <r>   -9.4610    1.0000 </r>
       <r>   -9.2409    1.0000 </r>
       <r>   -5.3031    1.0000 </r>
       <r>   -5.0046    1.0000 </r>
       <r>   -1.1239    0.0000 </r>
       <r>   -0.7987    0.0000 </r>
       <r>    4.4123    0.0000 </r>
       <r>    4.6340    0.0000 </r>
      </set>
      <set comment="kpoint 233">
       <r>  -17.2739    1.0000 </r>
       <r>  -16.9802    1.0000 </r>
       <r>  -15.8533    1.0000 </r>
       <r>  -15.5642    1.0000 </r>
       <r>   -9.3157    1.0000 </r>
       <r>   -9.2036    1.0000 </r>
       <r>   -5.2149    1.0000 </r>
       <r>   -5.0625    1.0000 </r>
       <r>   -1.0903    0.0000 </r>
       <r>   -0.9246    0.0000 </r>
       <r>    4.3273    0.0000 </r>
       <r>    4.4403    0.0000 </r>
      </set>
      <set comment="kpoint 234">
       <r>  -17.1147    1.0000 </r>
       <r>  -17.1147    1.0000 </r>
       <r>  -15.7375    1.0000 </r>
       <r>  -15.7375    1.0000 </r>
       <r>   -9.2288    1.0000 </r>
       <r>   -9.2288    1.0000 </r>
       <r>   -5.1335    1.0000 </r>
       <r>   -5.1335    1.0000 </r>
       <r>   -1.0231    0.0000 </r>
       <r>   -1.0231    0.0000 </r>
       <r>    4.3368    0.0000 </r>
       <r>    4.3368    0.0000 </r>
      </set>
      <set comment="kpoint 235">
       <r>  -17.8804    1.0000 </r>
       <r>  -17.8804    1.0000 </r>
       <r>  -13.3379    1.0000 </r>
       <r>  -13.3379    1.0000 </r>
       <r>  -11.6488    1.0000 </r>
       <r>  -11.6488    1.0000 </r>
       <r>   -5.4290    1.0000 </r>
       <r>   -5.4290    1.0000 </r>
       <r>   -0.0355    0.0000 </r>
       <r>   -0.0355    0.0000 </r>
       <r>    6.5147    0.0000 </r>
       <r>    6.5147    0.0000 </r>
      </set>
      <set comment="kpoint 236">
       <r>  -17.8714    1.0000 </r>
       <r>  -17.8714    1.0000 </r>
       <r>  -13.4144    1.0000 </r>
       <r>  -13.4144    1.0000 </r>
       <r>  -11.5697    1.0000 </r>
       <r>  -11.5697    1.0000 </r>
       <r>   -5.4238    1.0000 </r>
       <r>   -5.4238    1.0000 </r>
       <r>   -0.0549    0.0000 </r>
       <r>   -0.0549    0.0000 </r>
       <r>    6.5278    0.0000 </r>
       <r>    6.5278    0.0000 </r>
      </set>
      <set comment="kpoint 237">
       <r>  -17.8442    1.0000 </r>
       <r>  -17.8442    1.0000 </r>
       <r>  -13.6100    1.0000 </r>
       <r>  -13.6100    1.0000 </r>
       <r>  -11.3667    1.0000 </r>
       <r>  -11.3667    1.0000 </r>
       <r>   -5.4081    1.0000 </r>
       <r>   -5.4081    1.0000 </r>
       <r>   -0.1113    0.0000 </r>
       <r>   -0.1113    0.0000 </r>
       <r>    6.5670    0.0000 </r>
       <r>    6.5670    0.0000 </r>
      </set>
      <set comment="kpoint 238">
       <r>  -17.7991    1.0000 </r>
       <r>  -17.7991    1.0000 </r>
       <r>  -13.8691    1.0000 </r>
       <r>  -13.8691    1.0000 </r>
       <r>  -11.0970    1.0000 </r>
       <r>  -11.0970    1.0000 </r>
       <r>   -5.3828    1.0000 </r>
       <r>   -5.3828    1.0000 </r>
       <r>   -0.2000    0.0000 </r>
       <r>   -0.2000    0.0000 </r>
       <r>    6.6308    0.0000 </r>
       <r>    6.6308    0.0000 </r>
      </set>
      <set comment="kpoint 239">
       <r>  -17.7365    1.0000 </r>
       <r>  -17.7365    1.0000 </r>
       <r>  -14.1551    1.0000 </r>
       <r>  -14.1551    1.0000 </r>
       <r>  -10.7997    1.0000 </r>
       <r>  -10.7997    1.0000 </r>
       <r>   -5.3490    1.0000 </r>
       <r>   -5.3490    1.0000 </r>
       <r>   -0.3139    0.0000 </r>
       <r>   -0.3139    0.0000 </r>
       <r>    6.6993    0.0000 </r>
       <r>    6.6993    0.0000 </r>
      </set>
      <set comment="kpoint 240">
       <r>  -17.6571    1.0000 </r>
       <r>  -17.6571    1.0000 </r>
       <r>  -14.4487    1.0000 </r>
       <r>  -14.4487    1.0000 </r>
       <r>  -10.4972    1.0000 </r>
       <r>  -10.4972    1.0000 </r>
       <r>   -5.3085    1.0000 </r>
       <r>   -5.3085    1.0000 </r>
       <r>   -0.4444    0.0000 </r>
       <r>   -0.4444    0.0000 </r>
       <r>    6.3545    0.0000 </r>
       <r>    6.3545    0.0000 </r>
      </set>
      <set comment="kpoint 241">
       <r>  -17.5618    1.0000 </r>
       <r>  -17.5618    1.0000 </r>
       <r>  -14.7391    1.0000 </r>
       <r>  -14.7391    1.0000 </r>
       <r>  -10.2045    1.0000 </r>
       <r>  -10.2045    1.0000 </r>
       <r>   -5.2634    1.0000 </r>
       <r>   -5.2634    1.0000 </r>
       <r>   -0.5825    0.0000 </r>
       <r>   -0.5825    0.0000 </r>
       <r>    5.8633    0.0000 </r>
       <r>    5.8633    0.0000 </r>
      </set>
      <set comment="kpoint 242">
       <r>  -17.4523    1.0000 </r>
       <r>  -17.4523    1.0000 </r>
       <r>  -15.0190    1.0000 </r>
       <r>  -15.0190    1.0000 </r>
       <r>   -9.9333    1.0000 </r>
       <r>   -9.9333    1.0000 </r>
       <r>   -5.2164    1.0000 </r>
       <r>   -5.2164    1.0000 </r>
       <r>   -0.7190    0.0000 </r>
       <r>   -0.7190    0.0000 </r>
       <r>    5.4192    0.0000 </r>
       <r>    5.4192    0.0000 </r>
      </set>
      <set comment="kpoint 243">
       <r>  -17.3316    1.0000 </r>
       <r>  -17.3316    1.0000 </r>
       <r>  -15.2824    1.0000 </r>
       <r>  -15.2824    1.0000 </r>
       <r>   -9.6938    1.0000 </r>
       <r>   -9.6938    1.0000 </r>
       <r>   -5.1709    1.0000 </r>
       <r>   -5.1709    1.0000 </r>
       <r>   -0.8451    0.0000 </r>
       <r>   -0.8451    0.0000 </r>
       <r>    5.0370    0.0000 </r>
       <r>    5.0370    0.0000 </r>
      </set>
      <set comment="kpoint 244">
       <r>  -17.2049    1.0000 </r>
       <r>  -17.2049    1.0000 </r>
       <r>  -15.5217    1.0000 </r>
       <r>  -15.5217    1.0000 </r>
       <r>   -9.4954    1.0000 </r>
       <r>   -9.4954    1.0000 </r>
       <r>   -5.1302    1.0000 </r>
       <r>   -5.1302    1.0000 </r>
       <r>   -0.9530    0.0000 </r>
       <r>   -0.9530    0.0000 </r>
       <r>    4.7269    0.0000 </r>
       <r>    4.7269    0.0000 </r>
      </set>
      <set comment="kpoint 245">
       <r>  -17.0831    1.0000 </r>
       <r>  -17.0831    1.0000 </r>
       <r>  -15.7248    1.0000 </r>
       <r>  -15.7248    1.0000 </r>
       <r>   -9.3467    1.0000 </r>
       <r>   -9.3467    1.0000 </r>
       <r>   -5.0980    1.0000 </r>
       <r>   -5.0980    1.0000 </r>
       <r>   -1.0356    0.0000 </r>
       <r>   -1.0356    0.0000 </r>
       <r>    4.4980    0.0000 </r>
       <r>    4.4980    0.0000 </r>
      </set>
      <set comment="kpoint 246">
       <r>  -16.9867    1.0000 </r>
       <r>  -16.9867    1.0000 </r>
       <r>  -15.8702    1.0000 </r>
       <r>  -15.8702    1.0000 </r>
       <r>   -9.2544    1.0000 </r>
       <r>   -9.2544    1.0000 </r>
       <r>   -5.0772    1.0000 </r>
       <r>   -5.0772    1.0000 </r>
       <r>   -1.0875    0.0000 </r>
       <r>   -1.0875    0.0000 </r>
       <r>    4.3574    0.0000 </r>
       <r>    4.3574    0.0000 </r>
      </set>
      <set comment="kpoint 247">
       <r>  -16.9481    1.0000 </r>
       <r>  -16.9481    1.0000 </r>
       <r>  -15.9252    1.0000 </r>
       <r>  -15.9252    1.0000 </r>
       <r>   -9.2231    1.0000 </r>
       <r>   -9.2231    1.0000 </r>
       <r>   -5.0700    1.0000 </r>
       <r>   -5.0700    1.0000 </r>
       <r>   -1.1053    0.0000 </r>
       <r>   -1.1053    0.0000 </r>
       <r>    4.3101    0.0000 </r>
       <r>    4.3101    0.0000 </r>
      </set>
     </set>
    </set>
   </array>
  </eigenvalues>
  <separator name="orbital magnetization" >
   <v name="MAGDIPOLOUT">      0.00000000      0.00000000      0.00000000</v>
  </separator>
 </calculation>
 <structure name="finalpos" >
  <crystal>
   <varray name="basis" >
    <v>       4.31706015       0.00000000       0.00000000 </v>
    <v>       0.00000000       2.46273859       0.00000000 </v>
    <v>       0.00000000       0.00000000      19.83089291 </v>
   </varray>
   <i name="volume">    210.83790140 </i>
   <varray name="rec_basis" >
    <v>       0.23163912       0.00000000       0.00000000 </v>
    <v>       0.00000000       0.40605203       0.00000000 </v>
    <v>       0.00000000       0.00000000       0.05042637 </v>
   </varray>
  </crystal>
  <varray name="positions" >
   <v>       0.99975042       0.00000000       0.00000000 </v>
   <v>       0.16691624       0.50000000      -0.00000000 </v>
   <v>       0.49975042       0.50000000       0.00000000 </v>
   <v>       0.66691624       0.00000000      -0.00000000 </v>
  </varray>
 </structure>
</modeling>
