gr                                      
           1
     4.317060    0.000000    0.000000
     0.000000    2.462739    0.000000
     0.000000    0.000000   19.830893
   C 
   4
Direct configuration=     1
   0.99975412  0.00000000  0.00000000
   0.16691255  0.50000000  0.00000000
   0.49975412  0.50000000  0.00000000
   0.66691255  0.00000000  0.00000000
Direct configuration=     2
   0.99973569  0.00000000  0.00000000
   0.16693098  0.50000000 -0.00000000
   0.49973569  0.50000000  0.00000000
   0.66693098  0.00000000 -0.00000000
Direct configuration=     3
   0.99975040  0.00000000  0.00000000
   0.16691627  0.50000000 -0.00000000
   0.49975040  0.50000000  0.00000000
   0.66691627  0.00000000 -0.00000000
Direct configuration=     4
   0.99975044  0.00000000  0.00000000
   0.16691623  0.50000000 -0.00000000
   0.49975044  0.50000000  0.00000000
   0.66691623  0.00000000 -0.00000000
Direct configuration=     5
   0.99975042  0.00000000  0.00000000
   0.16691624  0.50000000 -0.00000000
   0.49975042  0.50000000  0.00000000
   0.66691624  0.00000000 -0.00000000
