    4    4  400    1
  0.5270948E+02  0.4265431E-09  0.2492590E-09  0.1983055E-08  0.5000000E-15
  1.000000000000000E-004
  CAR 
 gr                                      
     16    247     12
 
  0.0000000E+00  0.0000000E+00  0.0000000E+00  0.1157407E-02
    1      -22.182779
    2      -16.889285
    3      -15.927258
    4      -10.304205
    5       -9.295696
    6       -5.877259
    7       -5.763047
    8       -5.024831
    9       -1.099854
   10        0.532316
   11        1.332227
   12        1.719369
 
  0.4166667E-01  0.0000000E+00  0.0000000E+00  0.2314815E-02
    1      -22.172477
    2      -17.066270
    3      -15.735106
    4      -10.291931
    5       -9.285414
    6       -5.900312
    7       -5.804748
    8       -5.092800
    9       -1.016370
   10        0.546285
   11        1.346361
   12        1.733677
 
  0.8333333E-01  0.0000000E+00  0.0000000E+00  0.2314815E-02
    1      -22.141574
    2      -17.415555
    3      -15.340406
    4      -10.255127
    5       -9.254617
    6       -5.968170
    7       -5.928217
    8       -5.280878
    9       -0.781920
   10        0.588194
   11        1.388760
   12        1.776602
 
  0.1250000E+00  0.0000000E+00  0.0000000E+00  0.2314815E-02
    1      -22.090090
    2      -17.799082
    3      -14.881488
    4      -10.193850
    5       -9.203459
    6       -6.128826
    7       -6.077164
    8       -5.554241
    9       -0.431852
   10        0.658041
   11        1.459412
   12        1.848144
 
  0.1666667E+00  0.0000000E+00  0.0000000E+00  0.2314815E-02
    1      -22.018059
    2      -18.182786
    3      -14.392872
    4      -10.108197
    5       -9.132198
    6       -6.399621
    7       -6.221843
    8       -5.878944
    9       -0.000994
   10        0.755825
   11        1.558295
   12        1.948303
 
  0.2083333E+00  0.0000000E+00  0.0000000E+00  0.2314815E-02
    1      -21.925532
    2      -18.556593
    3      -13.885294
    4       -9.998310
    5       -9.041211
    6       -6.732230
    7       -6.395727
    8       -6.230133
    9        0.484546
   10        0.881538
   11        1.685378
   12        2.077079
 
  0.2500000E+00  0.0000000E+00  0.0000000E+00  0.2314815E-02
    1      -21.812570
    2      -18.916481
    3      -13.363644
    4       -9.864376
    5       -8.931001
    6       -7.117711
    7       -6.592014
    8       -6.591462
    9        1.006762
   10        1.035162
   11        1.840614
   12        2.234471
 
  0.2916667E+00  0.0000000E+00  0.0000000E+00  0.2314815E-02
    1      -21.679254
    2      -19.260452
    3      -12.831032
    4       -9.706639
    5       -8.802214
    6       -7.547227
    7       -6.952417
    8       -6.804116
    9        1.216668
   10        1.553021
   11        2.023931
   12        2.420474
 
  0.3333333E+00  0.0000000E+00  0.0000000E+00  0.2314815E-02
    1      -21.525681
    2      -19.587337
    3      -12.290007
    4       -9.525408
    5       -8.655664
    6       -8.012486
    7       -7.306138
    8       -7.025999
    9        1.426017
   10        2.113710
   11        2.235216
   12        2.635082
 
  0.3750000E+00  0.0000000E+00  0.0000000E+00  0.2314815E-02
    1      -21.351965
    2      -19.896369
    3      -11.743019
    4       -9.321070
    5       -8.505980
    6       -8.492358
    7       -7.648018
    8       -7.252335
    9        1.663151
   10        2.474278
   11        2.680174
   12        2.878283
 
  0.4166667E+00  0.0000000E+00  0.0000000E+00  0.2314815E-02
    1      -21.158242
    2      -20.186996
    3      -11.192656
    4       -9.094108
    5       -9.021068
    6       -8.313532
    7       -7.974861
    8       -7.478541
    9        1.927993
   10        2.740727
   11        3.150058
   12        3.239168
 
  0.4583333E+00  0.0000000E+00  0.0000000E+00  0.2314815E-02
    1      -20.944672
    2      -20.458800
    3      -10.641780
    4       -9.551958
    5       -8.845127
    6       -8.284380
    7       -8.120698
    8       -7.700740
    9        2.220432
   10        2.887337
   11        3.033542
   12        3.450364
 
  0.5000000E+00  0.0000000E+00  0.0000000E+00  0.1157407E-02
    1      -20.711449
    2      -20.711449
    3      -10.093635
    4      -10.093635
    5       -8.574892
    6       -8.574892
    7       -7.915691
    8       -7.915691
    9        2.540306
   10        2.540306
   11        3.348452
   12        3.348452
 
  0.0000000E+00  0.2777778E-01  0.0000000E+00  0.2314815E-02
    1      -22.169388
    2      -16.877767
    3      -15.916157
    4      -10.288251
    5       -9.355857
    6       -5.932656
    7       -5.794125
    8       -5.008569
    9       -1.104733
   10        0.550459
   11        1.350619
   12        1.737986
 
  0.4166667E-01  0.2777778E-01  0.0000000E+00  0.4629630E-02
    1      -22.159086
    2      -17.054604
    3      -15.724209
    4      -10.275981
    5       -9.345553
    6       -5.960711
    7       -5.830123
    8       -5.076696
    9       -1.021216
   10        0.564429
   11        1.364752
   12        1.752294
 
  0.8333333E-01  0.2777778E-01  0.0000000E+00  0.4629630E-02
    1      -22.128187
    2      -17.403653
    3      -15.329915
    4      -10.239189
    5       -9.314689
    6       -6.049018
    7       -5.931174
    8       -5.265133
    9       -0.786780
   10        0.606340
   11        1.407148
   12        1.795220
 
  0.1250000E+00  0.2777778E-01  0.0000000E+00  0.4629630E-02
    1      -22.076710
    2      -17.786962
    3      -14.871500
    4      -10.177934
    5       -9.263413
    6       -6.213193
    7       -6.073690
    8       -5.538858
    9       -0.436973
   10        0.676192
   11        1.477794
   12        1.866762
 
  0.1666667E+00  0.2777778E-01  0.0000000E+00  0.4629630E-02
    1      -22.004691
    2      -18.170477
    3      -14.383489
    4      -10.092312
    5       -9.191976
    6       -6.461237
    7       -6.237679
    8       -5.863823
    9       -0.006729
   10        0.773984
   11        1.576671
   12        1.966923
 
  0.2083333E+00  0.2777778E-01  0.0000000E+00  0.4629630E-02
    1      -21.912177
    2      -18.544120
    3      -13.876633
    4       -9.982463
    5       -9.100745
    6       -6.779494
    7       -6.422322
    8       -6.215160
    9        0.477831
   10        0.899706
   11        1.703746
   12        2.095701
 
  0.2500000E+00  0.2777778E-01  0.0000000E+00  0.4629630E-02
    1      -21.799232
    2      -18.903868
    3      -13.355849
    4       -9.848577
    5       -8.990207
    6       -7.154285
    7       -6.625836
    8       -6.576544
    9        0.998730
   10        1.053341
   11        1.858973
   12        2.253095
 
  0.2916667E+00  0.2777778E-01  0.0000000E+00  0.4629630E-02
    1      -21.665938
    2      -19.247718
    3      -12.824279
    4       -9.690897
    5       -8.860990
    6       -7.575184
    7       -6.937489
    8       -6.843395
    9        1.234860
   10        1.543377
   11        2.042280
   12        2.439102
 
  0.3333333E+00  0.2777778E-01  0.0000000E+00  0.4629630E-02
    1      -21.512391
    2      -19.574499
    3      -12.284506
    4       -9.509732
    5       -8.713882
    6       -8.033332
    7       -7.291158
    8       -7.069602
    9        1.444223
   10        2.102235
   11        2.253557
   12        2.653714
 
  0.3750000E+00  0.2777778E-01  0.0000000E+00  0.4629630E-02
    1      -21.338706
    2      -19.883441
    3      -11.739034
    4       -9.305467
    5       -8.549860
    6       -8.520936
    7       -7.632961
    8       -7.299421
    9        1.681374
   10        2.492616
   11        2.666828
   12        2.896922
 
  0.4166667E+00  0.2777778E-01  0.0000000E+00  0.4629630E-02
    1      -21.145019
    2      -20.173991
    3      -11.190506
    4       -9.078586
    5       -9.031159
    6       -8.370123
    7       -7.959713
    8       -7.528441
    9        1.946235
   10        2.759074
   11        3.168706
   12        3.225208
 
  0.4583333E+00  0.2777778E-01  0.0000000E+00  0.4629630E-02
    1      -20.931492
    2      -20.445727
    3      -10.641857
    4       -9.558040
    5       -8.829693
    6       -8.269136
    7       -8.176135
    8       -7.752907
    9        2.238701
   10        2.905719
   11        3.051922
   12        3.469029
 
  0.5000000E+00  0.2777778E-01  0.0000000E+00  0.2314815E-02
    1      -20.698318
    2      -20.698318
    3      -10.096422
    4      -10.096422
    5       -8.559551
    6       -8.559551
    7       -7.969677
    8       -7.969677
    9        2.558615
   10        2.558615
   11        3.366832
   12        3.366832
 
  0.0000000E+00  0.5555556E-01  0.0000000E+00  0.2314815E-02
    1      -22.129223
    2      -16.843221
    3      -15.883030
    4      -10.240420
    5       -9.531474
    6       -6.094484
    7       -5.886500
    8       -4.959803
    9       -1.120187
   10        0.604895
   11        1.405786
   12        1.793838
 
  0.4166667E-01  0.5555556E-01  0.0000000E+00  0.4629630E-02
    1      -22.118925
    2      -17.019625
    3      -15.691685
    4      -10.228163
    5       -9.521098
    6       -6.129777
    7       -5.913221
    8       -5.028419
    9       -1.036559
   10        0.618867
   11        1.419916
   12        1.808147
 
  0.8333333E-01  0.5555556E-01  0.0000000E+00  0.4629630E-02
    1      -22.088039
    2      -17.367970
    3      -15.298611
    4      -10.191411
    5       -9.490012
    6       -6.234040
    7       -5.992549
    8       -5.217961
    9       -0.802156
   10        0.660784
   11        1.462303
   12        1.851073
 
  0.1250000E+00  0.5555556E-01  0.0000000E+00  0.4629630E-02
    1      -22.036584
    2      -17.750628
    3      -14.841733
    4      -10.130221
    5       -9.438351
    6       -6.403886
    7       -6.120826
    8       -5.492797
    9       -0.453138
   10        0.730647
   11        1.532934
   12        1.922618
 
  0.1666667E+00  0.5555556E-01  0.0000000E+00  0.4629630E-02
    1      -21.964597
    2      -18.133574
    3      -14.355577
    4      -10.044691
    5       -9.366343
    6       -6.636116
    7       -6.290446
    8       -5.818560
    9       -0.024763
   10        0.828455
   11        1.631790
   12        2.022783
 
  0.2083333E+00  0.5555556E-01  0.0000000E+00  0.4629630E-02
    1      -21.872125
    2      -18.506725
    3      -13.850950
    4       -9.934962
    5       -9.274316
    6       -6.927530
    7       -6.491252
    8       -6.170342
    9        0.456810
   10        0.954200
   11        1.758839
   12        2.151566
 
  0.2500000E+00  0.5555556E-01  0.0000000E+00  0.4629630E-02
    1      -21.759233
    2      -18.866050
    3      -13.332848
    4       -9.801221
    5       -9.162708
    6       -7.273568
    7       -6.713185
    8       -6.531889
    9        0.973688
   10        1.107864
   11        1.914036
   12        2.308967
 
  0.2916667E+00  0.5555556E-01  0.0000000E+00  0.4629630E-02
    1      -21.626005
    2      -19.209535
    3      -12.804512
    4       -9.643713
    5       -9.032083
    6       -7.667857
    7       -6.947875
    8       -6.892799
    9        1.289416
   10        1.513418
   11        2.097311
   12        2.494982
 
  0.3333333E+00  0.5555556E-01  0.0000000E+00  0.4629630E-02
    1      -21.472536
    2      -19.536001
    3      -12.268658
    4       -9.462746
    5       -8.883144
    6       -8.102933
    7       -7.246306
    8       -7.188767
    9        1.498816
   10        2.066665
   11        2.308562
   12        2.709606
 
  0.3750000E+00  0.5555556E-01  0.0000000E+00  0.4629630E-02
    1      -21.298943
    2      -19.844672
    3      -11.727944
    4       -9.258705
    5       -8.716761
    6       -8.571173
    7       -7.587871
    8       -7.430697
    9        1.736008
   10        2.547609
   11        2.625426
   12        2.952829
 
  0.4166667E+00  0.5555556E-01  0.0000000E+00  0.4629630E-02
    1      -21.105365
    2      -20.134989
    3      -11.185219
    4       -9.065413
    5       -9.032071
    6       -8.533998
    7       -7.914344
    8       -7.669507
    9        2.000918
   10        2.814093
   11        3.179718
   12        3.224637
 
  0.4583333E+00  0.5555556E-01  0.0000000E+00  0.4629630E-02
    1      -20.891965
    2      -20.406523
    3      -10.643665
    4       -9.579212
    5       -8.783447
    6       -8.336149
    7       -8.223472
    8       -7.901800
    9        2.293446
   10        2.960725
   11        3.107047
   12        3.525000
 
  0.5000000E+00  0.5555556E-01  0.0000000E+00  0.2314815E-02
    1      -20.658941
    2      -20.658941
    3      -10.106925
    4      -10.106925
    5       -8.513592
    6       -8.513592
    7       -8.124782
    8       -8.124782
    9        2.613454
   10        2.613454
   11        3.421955
   12        3.421955
 
  0.0000000E+00  0.8333333E-01  0.0000000E+00  0.2314815E-02
    1      -22.062320
    2      -16.785657
    3      -15.828431
    4      -10.160812
    5       -9.809275
    6       -6.350962
    7       -6.037665
    8       -4.878592
    9       -1.148652
   10        0.695640
   11        1.497707
   12        1.886928
 
  0.4166667E-01  0.8333333E-01  0.0000000E+00  0.4629630E-02
    1      -22.052030
    2      -16.961386
    3      -15.638062
    4      -10.148577
    5       -9.798758
    6       -6.391538
    7       -6.055874
    8       -4.948075
    9       -1.064808
   10        0.709613
   11        1.511832
   12        1.901237
 
  0.8333333E-01  0.8333333E-01  0.0000000E+00  0.4629630E-02
    1      -22.021165
    2      -17.308589
    3      -15.247049
    4      -10.111893
    5       -9.767242
    6       -6.506194
    7       -6.115643
    8       -5.139561
    9       -0.830414
   10        0.751533
   11        1.554202
   12        1.944165
 
  0.1250000E+00  0.8333333E-01  0.0000000E+00  0.4629630E-02
    1      -21.969748
    2      -17.690163
    3      -14.792825
    4      -10.050816
    5       -9.714833
    6       -6.681803
    7       -6.224436
    8       -5.416331
    9       -0.482723
   10        0.821405
   11        1.624805
   12        2.015712
 
  0.1666667E+00  0.8333333E-01  0.0000000E+00  0.4629630E-02
    1      -21.897814
    2      -18.072155
    3      -14.309915
    4       -9.965445
    5       -9.641709
    6       -6.908142
    7       -6.383476
    8       -5.743465
    9       -0.057551
   10        0.919229
   11        1.723622
   12        2.115880
 
  0.2083333E+00  0.8333333E-01  0.0000000E+00  0.4629630E-02
    1      -21.805413
    2      -18.444479
    3      -13.809226
    4       -9.855919
    5       -9.548125
    6       -7.179350
    7       -6.587031
    8       -6.096001
    9        0.418892
   10        1.044998
   11        1.850623
   12        2.244669
 
  0.2500000E+00  0.8333333E-01  0.0000000E+00  0.4629630E-02
    1      -21.692611
    2      -18.803091
    3      -13.295905
    4       -9.722428
    5       -9.434415
    6       -7.492911
    7       -6.824382
    8       -6.457810
    9        0.928867
   10        1.198693
   11        2.005762
   12        2.402079
 
  0.2916667E+00  0.8333333E-01  0.0000000E+00  0.4629630E-02
    1      -21.559491
    2      -19.145961
    3      -12.773395
    4       -9.565215
    5       -9.301005
    6       -7.847930
    7       -7.082576
    8       -6.818643
    9        1.380284
   10        1.460147
   11        2.188977
   12        2.588106
 
  0.3333333E+00  0.8333333E-01  0.0000000E+00  0.4629630E-02
    1      -21.406152
    2      -19.471898
    3      -12.244669
    4       -9.384589
    5       -9.148414
    6       -8.242985
    7       -7.349455
    8       -7.171856
    9        1.589728
   10        2.003706
   11        2.400171
   12        2.802745
 
  0.3750000E+00  0.8333333E-01  0.0000000E+00  0.4629630E-02
    1      -21.232714
    2      -19.780113
    3      -11.712725
    4       -9.180933
    5       -8.977271
    6       -8.674684
    7       -7.615737
    8       -7.512999
    9        1.826968
   10        2.552138
   11        2.639187
   12        3.045987
 
  0.4166667E+00  0.8333333E-01  0.0000000E+00  0.4629630E-02
    1      -21.039318
    2      -20.070037
    3      -11.180834
    4       -9.137710
    5       -8.954726
    6       -8.788323
    7       -7.875328
    8       -7.838984
    9        2.091931
   10        2.905707
   11        3.097816
   12        3.317822
 
  0.4583333E+00  0.8333333E-01  0.0000000E+00  0.4629630E-02
    1      -20.826133
    2      -20.341234
    3      -10.652726
    4       -9.625804
    5       -8.706566
    6       -8.582458
    7       -8.147598
    8       -8.124463
    9        2.384524
   10        3.052055
   11        3.198857
   12        3.617242
 
  0.5000000E+00  0.8333333E-01  0.0000000E+00  0.2314815E-02
    1      -20.593360
    2      -20.593360
    3      -10.132714
    4      -10.132714
    5       -8.437205
    6       -8.437205
    7       -8.360738
    8       -8.360738
    9        2.704625
   10        2.704625
   11        3.513743
   12        3.513743
 
  0.0000000E+00  0.1111111E+00  0.0000000E+00  0.2314815E-02
    1      -21.968743
    2      -16.705096
    3      -15.753414
    4      -10.170712
    5      -10.049596
    6       -6.685937
    7       -6.243663
    8       -4.765038
    9       -1.194129
   10        0.822715
   11        1.626346
   12        2.017261
 
  0.4166667E-01  0.1111111E+00  0.0000000E+00  0.4629630E-02
    1      -21.958463
    2      -16.879986
    3      -15.564350
    4      -10.159952
    5      -10.037394
    6       -6.730453
    7       -6.253749
    8       -4.835854
    9       -1.109899
   10        0.836685
   11        1.640461
   12        2.031570
 
  0.8333333E-01  0.1111111E+00  0.0000000E+00  0.4629630E-02
    1      -21.927630
    2      -17.225654
    3      -15.176290
    4      -10.127690
    5      -10.000809
    6       -6.853234
    7       -6.293444
    8       -5.030298
    9       -0.875393
   10        0.878600
   11        1.682803
   12        2.074497
 
  0.1250000E+00  0.1111111E+00  0.0000000E+00  0.4629630E-02
    1      -21.876266
    2      -17.605717
    3      -14.726020
    4      -10.073978
    5       -9.939896
    6       -7.034932
    7       -6.378055
    8       -5.309961
    9       -0.529559
   10        0.948467
   11        1.753361
   12        2.146044
 
  0.1666667E+00  0.1111111E+00  0.0000000E+00  0.4629630E-02
    1      -21.804406
    2      -17.986360
    3      -14.248041
    4       -9.998902
    5       -9.854756
    6       -7.260740
    7       -6.515607
    8       -5.639105
    9       -0.109026
   10        1.046290
   11        1.852114
   12        2.246213
 
  0.2083333E+00  0.1111111E+00  0.0000000E+00  0.4629630E-02
    1      -21.712105
    2      -18.357509
    3      -13.753432
    4       -9.902573
    5       -9.745528
    6       -7.521514
    7       -6.705910
    8       -5.992711
    9        0.359952
   10        1.172068
   11        1.979032
   12        2.375007
 
  0.2500000E+00  0.1111111E+00  0.0000000E+00  0.4629630E-02
    1      -21.599429
    2      -18.715105
    3      -13.247608
    4       -9.785123
    5       -9.612402
    6       -7.812396
    7       -6.942473
    8       -6.354863
    9        0.859893
   10        1.325782
   11        2.134073
   12        2.532424
 
  0.2916667E+00  0.1111111E+00  0.0000000E+00  0.4629630E-02
    1      -21.466461
    2      -19.057101
    3      -12.734388
    4       -9.646693
    5       -9.455622
    6       -8.131924
    7       -7.214210
    8       -6.715543
    9        1.378902
   10        1.507401
   11        2.317178
   12        2.718462
 
  0.3333333E+00  0.1111111E+00  0.0000000E+00  0.4629630E-02
    1      -21.313307
    2      -19.382285
    3      -12.217244
    4       -9.487416
    5       -9.275496
    6       -8.481172
    7       -7.507180
    8       -7.068291
    9        1.716879
   10        1.908345
   11        2.528262
   12        2.933115
 
  0.3750000E+00  0.1111111E+00  0.0000000E+00  0.4629630E-02
    1      -21.140087
    2      -19.689852
    3      -11.699831
    4       -9.307395
    5       -9.072406
    6       -8.862186
    7       -7.806908
    8       -7.408788
    9        1.954154
   10        2.441409
   11        2.767196
   12        3.176376
 
  0.4166667E+00  0.1111111E+00  0.0000000E+00  0.4629630E-02
    1      -20.946949
    2      -19.979218
    3      -11.186280
    4       -9.275818
    5       -9.106686
    6       -8.846828
    7       -8.101078
    8       -7.734036
    9        2.219152
   10        2.972083
   11        3.033737
   12        3.448235
 
  0.4583333E+00  0.1111111E+00  0.0000000E+00  0.4629630E-02
    1      -20.734068
    2      -20.249935
    3      -10.681382
    4       -9.720159
    5       -8.885309
    6       -8.599353
    7       -8.381358
    8       -8.041880
    9        2.511783
   10        3.179439
   11        3.327202
   12        3.492017
 
  0.5000000E+00  0.1111111E+00  0.0000000E+00  0.2314815E-02
    1      -20.501648
    2      -20.501648
    3      -10.190657
    4      -10.190657
    5       -8.643360
    6       -8.643360
    7       -8.330724
    8       -8.330724
    9        2.831929
   10        2.831929
   11        3.641833
   12        3.641833
 
  0.0000000E+00  0.1388889E+00  0.0000000E+00  0.2314815E-02
    1      -21.848580
    2      -16.601567
    3      -15.659771
    4      -10.595202
    5       -9.907016
    6       -7.082133
    7       -6.499381
    8       -4.619284
    9       -1.262027
   10        0.986133
   11        1.791644
   12        2.184842
 
  0.4166667E-01  0.1388889E+00  0.0000000E+00  0.4629630E-02
    1      -21.838314
    2      -16.775581
    3      -15.472276
    4      -10.584032
    5       -9.894859
    6       -7.129973
    7       -6.501277
    8       -4.692056
    9       -1.177118
   10        1.000096
   11        1.805745
   12        2.199149
 
  0.8333333E-01  0.1388889E+00  0.0000000E+00  0.4629630E-02
    1      -21.807521
    2      -17.119400
    3      -15.088187
    4      -10.550509
    5       -9.858407
    6       -7.260008
    7       -6.519719
    8       -4.890768
    9       -0.942172
   10        1.041991
   11        1.848044
   12        2.242073
 
  0.1250000E+00  0.1388889E+00  0.0000000E+00  0.4629630E-02
    1      -21.756225
    2      -17.497527
    3      -14.643526
    4      -10.494581
    5       -9.797719
    6       -7.448252
    7       -6.576318
    8       -5.174495
    9       -0.598644
   10        1.111830
   11        1.918529
   12        2.313616
 
  0.1666667E+00  0.1388889E+00  0.0000000E+00  0.4629630E-02
    1      -21.684464
    2      -17.876408
    3      -14.172755
    4      -10.416149
    5       -9.712892
    6       -7.676593
    7       -6.684765
    8       -5.506379
    9       -0.184271
   10        1.209626
   11        2.017178
   12        2.413782
 
  0.2083333E+00  0.1388889E+00  0.0000000E+00  0.4629630E-02
    1      -21.592292
    2      -18.246010
    3      -13.687246
    4      -10.315040
    5       -9.604070
    6       -7.933642
    7       -6.849680
    8       -5.861380
    9        0.274720
   10        1.335381
   11        2.143959
   12        2.542574
 
  0.2500000E+00  0.1388889E+00  0.0000000E+00  0.4629630E-02
    1      -21.479778
    2      -18.602268
    3      -13.192918
    4      -10.190966
    5       -9.471443
    6       -8.212509
    7       -7.068902
    8       -6.223914
    9        0.761265
   10        1.489084
   11        2.298830
   12        2.699994
 
  0.2916667E+00  0.1388889E+00  0.0000000E+00  0.4629630E-02
    1      -21.347009
    2      -18.943112
    3      -12.694310
    4      -10.043468
    5       -9.315255
    6       -8.509581
    7       -7.335211
    8       -6.584304
    9        1.263957
   10        1.670703
   11        2.481733
   12        2.886038
 
  0.3333333E+00  0.1388889E+00  0.0000000E+00  0.4629630E-02
    1      -21.194093
    2      -19.267305
    3      -12.195877
    4       -9.871846
    5       -9.135814
    6       -8.824083
    7       -7.637562
    8       -6.936349
    9        1.774662
   10        1.880187
   11        2.692592
   12        3.100702
 
  0.3750000E+00  0.1388889E+00  0.0000000E+00  0.4629630E-02
    1      -21.021157
    2      -19.574020
    3      -11.702564
    4       -9.675097
    5       -9.157860
    6       -8.933500
    7       -7.962149
    8       -7.275909
    9        2.117470
   10        2.287148
   11        2.931306
   12        3.343978
 
  0.4166667E+00  0.1388889E+00  0.0000000E+00  0.4629630E-02
    1      -20.828356
    2      -19.862654
    3      -11.220060
    4       -9.514751
    5       -9.451939
    6       -8.708787
    7       -8.293709
    8       -7.600107
    9        2.382472
   10        2.796316
   11        3.197725
   12        3.615857
 
  0.4583333E+00  0.1388889E+00  0.0000000E+00  0.4629630E-02
    1      -20.615871
    2      -20.132742
    3      -10.754707
    4       -9.898985
    5       -9.201108
    6       -8.617571
    7       -8.462259
    8       -7.906868
    9        2.675095
   10        3.297675
   11        3.342709
   12        3.491546
 
  0.5000000E+00  0.1388889E+00  0.0000000E+00  0.2314815E-02
    1      -20.383915
    2      -20.383915
    3      -10.312780
    4      -10.312780
    5       -8.922246
    6       -8.922246
    7       -8.194646
    8       -8.194646
    9        2.995223
   10        2.995223
   11        3.776040
   12        3.776041
 
  0.0000000E+00  0.1666667E+00  0.0000000E+00  0.2314815E-02
    1      -21.701951
    2      -16.475110
    3      -15.550519
    4      -11.062126
    5       -9.733397
    6       -7.523417
    7       -6.798897
    8       -4.441519
    9       -1.358831
   10        1.185891
   11        1.993524
   12        2.389672
 
  0.4166667E-01  0.1666667E+00  0.0000000E+00  0.4629630E-02
    1      -21.691702
    2      -16.648421
    3      -15.364776
    4      -11.050256
    5       -9.721298
    6       -7.574346
    7       -6.792434
    8       -4.517142
    9       -1.272700
   10        1.199842
   11        2.007602
   12        2.403978
 
  0.8333333E-01  0.1666667E+00  0.0000000E+00  0.4629630E-02
    1      -21.660960
    2      -16.990191
    3      -14.985960
    4      -11.014563
    5       -9.685022
    6       -7.711368
    7       -6.788613
    8       -4.721920
    9       -1.036568
   10        1.241701
   11        2.049832
   12        2.446895
 
  0.1250000E+00  0.1666667E+00  0.0000000E+00  0.4629630E-02
    1      -21.609749
    2      -17.365956
    3      -14.549298
    4      -10.954783
    5       -9.624627
    6       -7.906607
    7       -6.814457
    8       -5.011208
    9       -0.695579
   10        1.311486
   11        2.120197
   12        2.518429
 
  0.1666667E+00  0.1666667E+00  0.0000000E+00  0.4629630E-02
    1      -21.538109
    2      -17.742626
    3      -14.089222
    4      -10.870433
    5       -9.540214
    6       -8.139331
    7       -6.888563
    8       -5.346672
    9       -0.288880
   10        1.409215
   11        2.218672
   12        2.618584
 
  0.2083333E+00  0.1666667E+00  0.0000000E+00  0.4629630E-02
    1      -21.446095
    2      -18.110273
    3      -13.617681
    4      -10.760728
    5       -9.431926
    6       -8.396634
    7       -7.019715
    8       -5.703375
    9        0.157504
   10        1.534905
   11        2.345217
   12        2.747366
 
  0.2500000E+00  0.1666667E+00  0.0000000E+00  0.4629630E-02
    1      -21.333781
    2      -18.464834
    3      -13.141599
    4      -10.624470
    5       -9.299956
    6       -8.670447
    7       -7.209496
    8       -6.066253
    9        0.627201
   10        1.688550
   11        2.499779
   12        2.904779
 
  0.2916667E+00  0.1666667E+00  0.0000000E+00  0.4629630E-02
    1      -21.201258
    2      -18.804218
    3      -12.666948
    4      -10.459915
    5       -9.144549
    6       -8.955780
    7       -7.454158
    8       -6.426110
    9        1.109531
   10        1.870124
   11        2.682282
   12        3.090823
 
  0.3333333E+00  0.1666667E+00  0.0000000E+00  0.4629630E-02
    1      -21.048639
    2      -19.127159
    3      -12.200051
    4      -10.264692
    5       -9.250008
    6       -8.966014
    7       -7.745935
    8       -6.777100
    9        1.597049
   10        2.079575
   11        2.892623
   12        3.305492
 
  0.3750000E+00  0.1666667E+00  0.0000000E+00  0.4629630E-02
    1      -20.876057
    2      -19.432799
    3      -11.747907
    4      -10.035977
    5       -9.552687
    6       -8.764732
    7       -8.074068
    8       -7.115324
    9        2.084197
   10        2.316828
   11        3.130651
   12        3.548778
 
  0.4166667E+00  0.1666667E+00  0.0000000E+00  0.4629630E-02
    1      -20.683676
    2      -19.720511
    3      -11.317619
    4       -9.865654
    5       -9.771360
    6       -8.541172
    7       -8.425525
    8       -7.438061
    9        2.566548
   10        2.581791
   11        3.396069
   12        3.820671
 
  0.4583333E+00  0.1666667E+00  0.0000000E+00  0.4629630E-02
    1      -20.471685
    2      -19.989811
    3      -10.914689
    4      -10.193064
    5       -9.470745
    6       -8.785576
    7       -8.295911
    8       -7.743336
    9        2.874357
   10        3.040338
   11        3.541760
   12        3.686930
 
  0.5000000E+00  0.1666667E+00  0.0000000E+00  0.2314815E-02
    1      -20.240309
    2      -20.240309
    3      -10.540810
    4      -10.540810
    5       -9.138734
    6       -9.138734
    7       -8.029667
    8       -8.029667
    9        3.194398
   10        3.194398
   11        3.501676
   12        3.501676
 