<?xml version="1.0" encoding="ISO-8859-1"?>
<modeling>
 <generator>
  <i name="program" type="string">vasp </i>
  <i name="version" type="string">5.3.5  </i>
  <i name="subversion" type="string">31Mar14 (build Mar 02 2015 18:14:16) complex                          parallel </i>
  <i name="platform" type="string">LinuxIFC </i>
  <i name="date" type="string">2018 08 09 </i>
  <i name="time" type="string">19:49:55 </i>
 </generator>
 <incar>
  <i type="string" name="SYSTEM">  gr</i>
  <i type="string" name="PREC">accurate : accuracy</i>
  <i type="string" name="ALGO"> FAST.</i>
  <i type="int" name="NELM">   100</i>
  <i type="int" name="NELMDL">    -3</i>
  <i type="int" name="NELMIN">     5</i>
  <i type="int" name="IBRION">     1</i>
  <i name="EDIFF">      0.00000000</i>
  <i name="EDIFFG">     -0.00000100</i>
  <i type="int" name="NSW">   400</i>
  <i type="int" name="ISIF">     2</i>
  <i name="ENCUT">   2000.00000000</i>
  <i type="int" name="ISMEAR">     0</i>
  <i name="SIGMA">      0.05000000</i>
  <i type="int" name="NWRITE">     2</i>
  <i type="logical" name="LWAVE"> F  </i>
  <i type="logical" name="LCHARG"> F  </i>
  <i type="int" name="NELM">   100</i>
 </incar>
 <kpoints>
  <generation param="Gamma">
   <v type="int" name="divisions">      24       36        1 </v>
   <v name="usershift">      0.00000000       0.00000000       0.00000000 </v>
   <v name="genvec1">      0.04166667       0.00000000       0.00000000 </v>
   <v name="genvec2">      0.00000000       0.02777778       0.00000000 </v>
   <v name="genvec3">      0.00000000       0.00000000       1.00000000 </v>
   <v name="shift">      0.00000000       0.00000000       0.00000000 </v>
  </generation>
  <varray name="kpointlist" >
   <v>       0.00000000       0.00000000       0.00000000 </v>
   <v>       0.04166667       0.00000000       0.00000000 </v>
   <v>       0.08333333       0.00000000       0.00000000 </v>
   <v>       0.12500000       0.00000000       0.00000000 </v>
   <v>       0.16666667       0.00000000       0.00000000 </v>
   <v>       0.20833333       0.00000000       0.00000000 </v>
   <v>       0.25000000       0.00000000       0.00000000 </v>
   <v>       0.29166667       0.00000000       0.00000000 </v>
   <v>       0.33333333       0.00000000       0.00000000 </v>
   <v>       0.37500000       0.00000000       0.00000000 </v>
   <v>       0.41666667       0.00000000       0.00000000 </v>
   <v>       0.45833333       0.00000000       0.00000000 </v>
   <v>       0.50000000       0.00000000       0.00000000 </v>
   <v>       0.00000000       0.02777778       0.00000000 </v>
   <v>       0.04166667       0.02777778       0.00000000 </v>
   <v>       0.08333333       0.02777778       0.00000000 </v>
   <v>       0.12500000       0.02777778       0.00000000 </v>
   <v>       0.16666667       0.02777778       0.00000000 </v>
   <v>       0.20833333       0.02777778       0.00000000 </v>
   <v>       0.25000000       0.02777778       0.00000000 </v>
   <v>       0.29166667       0.02777778       0.00000000 </v>
   <v>       0.33333333       0.02777778       0.00000000 </v>
   <v>       0.37500000       0.02777778       0.00000000 </v>
   <v>       0.41666667       0.02777778       0.00000000 </v>
   <v>       0.45833333       0.02777778       0.00000000 </v>
   <v>       0.50000000       0.02777778       0.00000000 </v>
   <v>       0.00000000       0.05555556       0.00000000 </v>
   <v>       0.04166667       0.05555556       0.00000000 </v>
   <v>       0.08333333       0.05555556       0.00000000 </v>
   <v>       0.12500000       0.05555556       0.00000000 </v>
   <v>       0.16666667       0.05555556       0.00000000 </v>
   <v>       0.20833333       0.05555556       0.00000000 </v>
   <v>       0.25000000       0.05555556       0.00000000 </v>
   <v>       0.29166667       0.05555556       0.00000000 </v>
   <v>       0.33333333       0.05555556       0.00000000 </v>
   <v>       0.37500000       0.05555556       0.00000000 </v>
   <v>       0.41666667       0.05555556       0.00000000 </v>
   <v>       0.45833333       0.05555556       0.00000000 </v>
   <v>       0.50000000       0.05555556       0.00000000 </v>
   <v>       0.00000000       0.08333333       0.00000000 </v>
   <v>       0.04166667       0.08333333       0.00000000 </v>
   <v>       0.08333333       0.08333333       0.00000000 </v>
   <v>       0.12500000       0.08333333       0.00000000 </v>
   <v>       0.16666667       0.08333333       0.00000000 </v>
   <v>       0.20833333       0.08333333       0.00000000 </v>
   <v>       0.25000000       0.08333333       0.00000000 </v>
   <v>       0.29166667       0.08333333       0.00000000 </v>
   <v>       0.33333333       0.08333333       0.00000000 </v>
   <v>       0.37500000       0.08333333       0.00000000 </v>
   <v>       0.41666667       0.08333333       0.00000000 </v>
   <v>       0.45833333       0.08333333       0.00000000 </v>
   <v>       0.50000000       0.08333333       0.00000000 </v>
   <v>       0.00000000       0.11111111       0.00000000 </v>
   <v>       0.04166667       0.11111111       0.00000000 </v>
   <v>       0.08333333       0.11111111       0.00000000 </v>
   <v>       0.12500000       0.11111111       0.00000000 </v>
   <v>       0.16666667       0.11111111       0.00000000 </v>
   <v>       0.20833333       0.11111111       0.00000000 </v>
   <v>       0.25000000       0.11111111       0.00000000 </v>
   <v>       0.29166667       0.11111111       0.00000000 </v>
   <v>       0.33333333       0.11111111       0.00000000 </v>
   <v>       0.37500000       0.11111111       0.00000000 </v>
   <v>       0.41666667       0.11111111       0.00000000 </v>
   <v>       0.45833333       0.11111111       0.00000000 </v>
   <v>       0.50000000       0.11111111       0.00000000 </v>
   <v>       0.00000000       0.13888889       0.00000000 </v>
   <v>       0.04166667       0.13888889       0.00000000 </v>
   <v>       0.08333333       0.13888889       0.00000000 </v>
   <v>       0.12500000       0.13888889       0.00000000 </v>
   <v>       0.16666667       0.13888889       0.00000000 </v>
   <v>       0.20833333       0.13888889       0.00000000 </v>
   <v>       0.25000000       0.13888889       0.00000000 </v>
   <v>       0.29166667       0.13888889       0.00000000 </v>
   <v>       0.33333333       0.13888889       0.00000000 </v>
   <v>       0.37500000       0.13888889       0.00000000 </v>
   <v>       0.41666667       0.13888889       0.00000000 </v>
   <v>       0.45833333       0.13888889       0.00000000 </v>
   <v>       0.50000000       0.13888889       0.00000000 </v>
   <v>       0.00000000       0.16666667       0.00000000 </v>
   <v>       0.04166667       0.16666667       0.00000000 </v>
   <v>       0.08333333       0.16666667       0.00000000 </v>
   <v>       0.12500000       0.16666667       0.00000000 </v>
   <v>       0.16666667       0.16666667       0.00000000 </v>
   <v>       0.20833333       0.16666667       0.00000000 </v>
   <v>       0.25000000       0.16666667       0.00000000 </v>
   <v>       0.29166667       0.16666667       0.00000000 </v>
   <v>       0.33333333       0.16666667       0.00000000 </v>
   <v>       0.37500000       0.16666667       0.00000000 </v>
   <v>       0.41666667       0.16666667       0.00000000 </v>
   <v>       0.45833333       0.16666667       0.00000000 </v>
   <v>       0.50000000       0.16666667       0.00000000 </v>
   <v>       0.00000000       0.19444444       0.00000000 </v>
   <v>       0.04166667       0.19444444       0.00000000 </v>
   <v>       0.08333333       0.19444444       0.00000000 </v>
   <v>       0.12500000       0.19444444       0.00000000 </v>
   <v>       0.16666667       0.19444444       0.00000000 </v>
   <v>       0.20833333       0.19444444       0.00000000 </v>
   <v>       0.25000000       0.19444444       0.00000000 </v>
   <v>       0.29166667       0.19444444       0.00000000 </v>
   <v>       0.33333333       0.19444444       0.00000000 </v>
   <v>       0.37500000       0.19444444       0.00000000 </v>
   <v>       0.41666667       0.19444444       0.00000000 </v>
   <v>       0.45833333       0.19444444       0.00000000 </v>
   <v>       0.50000000       0.19444444       0.00000000 </v>
   <v>       0.00000000       0.22222222       0.00000000 </v>
   <v>       0.04166667       0.22222222       0.00000000 </v>
   <v>       0.08333333       0.22222222       0.00000000 </v>
   <v>       0.12500000       0.22222222       0.00000000 </v>
   <v>       0.16666667       0.22222222       0.00000000 </v>
   <v>       0.20833333       0.22222222       0.00000000 </v>
   <v>       0.25000000       0.22222222       0.00000000 </v>
   <v>       0.29166667       0.22222222       0.00000000 </v>
   <v>       0.33333333       0.22222222       0.00000000 </v>
   <v>       0.37500000       0.22222222       0.00000000 </v>
   <v>       0.41666667       0.22222222       0.00000000 </v>
   <v>       0.45833333       0.22222222       0.00000000 </v>
   <v>       0.50000000       0.22222222       0.00000000 </v>
   <v>       0.00000000       0.25000000       0.00000000 </v>
   <v>       0.04166667       0.25000000       0.00000000 </v>
   <v>       0.08333333       0.25000000       0.00000000 </v>
   <v>       0.12500000       0.25000000       0.00000000 </v>
   <v>       0.16666667       0.25000000       0.00000000 </v>
   <v>       0.20833333       0.25000000       0.00000000 </v>
   <v>       0.25000000       0.25000000       0.00000000 </v>
   <v>       0.29166667       0.25000000       0.00000000 </v>
   <v>       0.33333333       0.25000000       0.00000000 </v>
   <v>       0.37500000       0.25000000       0.00000000 </v>
   <v>       0.41666667       0.25000000       0.00000000 </v>
   <v>       0.45833333       0.25000000       0.00000000 </v>
   <v>       0.50000000       0.25000000       0.00000000 </v>
   <v>       0.00000000       0.27777778       0.00000000 </v>
   <v>       0.04166667       0.27777778       0.00000000 </v>
   <v>       0.08333333       0.27777778       0.00000000 </v>
   <v>       0.12500000       0.27777778       0.00000000 </v>
   <v>       0.16666667       0.27777778       0.00000000 </v>
   <v>       0.20833333       0.27777778       0.00000000 </v>
   <v>       0.25000000       0.27777778       0.00000000 </v>
   <v>       0.29166667       0.27777778       0.00000000 </v>
   <v>       0.33333333       0.27777778       0.00000000 </v>
   <v>       0.37500000       0.27777778       0.00000000 </v>
   <v>       0.41666667       0.27777778       0.00000000 </v>
   <v>       0.45833333       0.27777778       0.00000000 </v>
   <v>       0.50000000       0.27777778       0.00000000 </v>
   <v>       0.00000000       0.30555556       0.00000000 </v>
   <v>       0.04166667       0.30555556       0.00000000 </v>
   <v>       0.08333333       0.30555556       0.00000000 </v>
   <v>       0.12500000       0.30555556       0.00000000 </v>
   <v>       0.16666667       0.30555556       0.00000000 </v>
   <v>       0.20833333       0.30555556       0.00000000 </v>
   <v>       0.25000000       0.30555556       0.00000000 </v>
   <v>       0.29166667       0.30555556       0.00000000 </v>
   <v>       0.33333333       0.30555556       0.00000000 </v>
   <v>       0.37500000       0.30555556       0.00000000 </v>
   <v>       0.41666667       0.30555556       0.00000000 </v>
   <v>       0.45833333       0.30555556       0.00000000 </v>
   <v>       0.50000000       0.30555556       0.00000000 </v>
   <v>       0.00000000       0.33333333       0.00000000 </v>
   <v>       0.04166667       0.33333333       0.00000000 </v>
   <v>       0.08333333       0.33333333       0.00000000 </v>
   <v>       0.12500000       0.33333333       0.00000000 </v>
   <v>       0.16666667       0.33333333       0.00000000 </v>
   <v>       0.20833333       0.33333333       0.00000000 </v>
   <v>       0.25000000       0.33333333       0.00000000 </v>
   <v>       0.29166667       0.33333333       0.00000000 </v>
   <v>       0.33333333       0.33333333       0.00000000 </v>
   <v>       0.37500000       0.33333333       0.00000000 </v>
   <v>       0.41666667       0.33333333       0.00000000 </v>
   <v>       0.45833333       0.33333333       0.00000000 </v>
   <v>       0.50000000       0.33333333       0.00000000 </v>
   <v>       0.00000000       0.36111111       0.00000000 </v>
   <v>       0.04166667       0.36111111       0.00000000 </v>
   <v>       0.08333333       0.36111111       0.00000000 </v>
   <v>       0.12500000       0.36111111       0.00000000 </v>
   <v>       0.16666667       0.36111111       0.00000000 </v>
   <v>       0.20833333       0.36111111       0.00000000 </v>
   <v>       0.25000000       0.36111111       0.00000000 </v>
   <v>       0.29166667       0.36111111       0.00000000 </v>
   <v>       0.33333333       0.36111111       0.00000000 </v>
   <v>       0.37500000       0.36111111       0.00000000 </v>
   <v>       0.41666667       0.36111111       0.00000000 </v>
   <v>       0.45833333       0.36111111       0.00000000 </v>
   <v>       0.50000000       0.36111111       0.00000000 </v>
   <v>       0.00000000       0.38888889       0.00000000 </v>
   <v>       0.04166667       0.38888889       0.00000000 </v>
   <v>       0.08333333       0.38888889       0.00000000 </v>
   <v>       0.12500000       0.38888889       0.00000000 </v>
   <v>       0.16666667       0.38888889       0.00000000 </v>
   <v>       0.20833333       0.38888889       0.00000000 </v>
   <v>       0.25000000       0.38888889       0.00000000 </v>
   <v>       0.29166667       0.38888889       0.00000000 </v>
   <v>       0.33333333       0.38888889       0.00000000 </v>
   <v>       0.37500000       0.38888889       0.00000000 </v>
   <v>       0.41666667       0.38888889       0.00000000 </v>
   <v>       0.45833333       0.38888889       0.00000000 </v>
   <v>       0.50000000       0.38888889       0.00000000 </v>
   <v>       0.00000000       0.41666667       0.00000000 </v>
   <v>       0.04166667       0.41666667       0.00000000 </v>
   <v>       0.08333333       0.41666667       0.00000000 </v>
   <v>       0.12500000       0.41666667       0.00000000 </v>
   <v>       0.16666667       0.41666667       0.00000000 </v>
   <v>       0.20833333       0.41666667       0.00000000 </v>
   <v>       0.25000000       0.41666667       0.00000000 </v>
   <v>       0.29166667       0.41666667       0.00000000 </v>
   <v>       0.33333333       0.41666667       0.00000000 </v>
   <v>       0.37500000       0.41666667       0.00000000 </v>
   <v>       0.41666667       0.41666667       0.00000000 </v>
   <v>       0.45833333       0.41666667       0.00000000 </v>
   <v>       0.50000000       0.41666667       0.00000000 </v>
   <v>       0.00000000       0.44444444       0.00000000 </v>
   <v>       0.04166667       0.44444444       0.00000000 </v>
   <v>       0.08333333       0.44444444       0.00000000 </v>
   <v>       0.12500000       0.44444444       0.00000000 </v>
   <v>       0.16666667       0.44444444       0.00000000 </v>
   <v>       0.20833333       0.44444444       0.00000000 </v>
   <v>       0.25000000       0.44444444       0.00000000 </v>
   <v>       0.29166667       0.44444444       0.00000000 </v>
   <v>       0.33333333       0.44444444       0.00000000 </v>
   <v>       0.37500000       0.44444444       0.00000000 </v>
   <v>       0.41666667       0.44444444       0.00000000 </v>
   <v>       0.45833333       0.44444444       0.00000000 </v>
   <v>       0.50000000       0.44444444       0.00000000 </v>
   <v>       0.00000000       0.47222222       0.00000000 </v>
   <v>       0.04166667       0.47222222       0.00000000 </v>
   <v>       0.08333333       0.47222222       0.00000000 </v>
   <v>       0.12500000       0.47222222       0.00000000 </v>
   <v>       0.16666667       0.47222222       0.00000000 </v>
   <v>       0.20833333       0.47222222       0.00000000 </v>
   <v>       0.25000000       0.47222222       0.00000000 </v>
   <v>       0.29166667       0.47222222       0.00000000 </v>
   <v>       0.33333333       0.47222222       0.00000000 </v>
   <v>       0.37500000       0.47222222       0.00000000 </v>
   <v>       0.41666667       0.47222222       0.00000000 </v>
   <v>       0.45833333       0.47222222       0.00000000 </v>
   <v>       0.50000000       0.47222222       0.00000000 </v>
   <v>       0.00000000       0.50000000       0.00000000 </v>
   <v>       0.04166667       0.50000000       0.00000000 </v>
   <v>       0.08333333       0.50000000       0.00000000 </v>
   <v>       0.12500000       0.50000000       0.00000000 </v>
   <v>       0.16666667       0.50000000       0.00000000 </v>
   <v>       0.20833333       0.50000000       0.00000000 </v>
   <v>       0.25000000       0.50000000       0.00000000 </v>
   <v>       0.29166667       0.50000000       0.00000000 </v>
   <v>       0.33333333       0.50000000       0.00000000 </v>
   <v>       0.37500000       0.50000000       0.00000000 </v>
   <v>       0.41666667       0.50000000       0.00000000 </v>
   <v>       0.45833333       0.50000000       0.00000000 </v>
   <v>       0.50000000       0.50000000       0.00000000 </v>
  </varray>
  <varray name="weights" >
   <v>       0.00115741 </v>
   <v>       0.00231481 </v>
   <v>       0.00231481 </v>
   <v>       0.00231481 </v>
   <v>       0.00231481 </v>
   <v>       0.00231481 </v>
   <v>       0.00231481 </v>
   <v>       0.00231481 </v>
   <v>       0.00231481 </v>
   <v>       0.00231481 </v>
   <v>       0.00231481 </v>
   <v>       0.00231481 </v>
   <v>       0.00115741 </v>
   <v>       0.00231481 </v>
   <v>       0.00462963 </v>
   <v>       0.00462963 </v>
   <v>       0.00462963 </v>
   <v>       0.00462963 </v>
   <v>       0.00462963 </v>
   <v>       0.00462963 </v>
   <v>       0.00462963 </v>
   <v>       0.00462963 </v>
   <v>       0.00462963 </v>
   <v>       0.00462963 </v>
   <v>       0.00462963 </v>
   <v>       0.00231481 </v>
   <v>       0.00231481 </v>
   <v>       0.00462963 </v>
   <v>       0.00462963 </v>
   <v>       0.00462963 </v>
   <v>       0.00462963 </v>
   <v>       0.00462963 </v>
   <v>       0.00462963 </v>
   <v>       0.00462963 </v>
   <v>       0.00462963 </v>
   <v>       0.00462963 </v>
   <v>       0.00462963 </v>
   <v>       0.00462963 </v>
   <v>       0.00231481 </v>
   <v>       0.00231481 </v>
   <v>       0.00462963 </v>
   <v>       0.00462963 </v>
   <v>       0.00462963 </v>
   <v>       0.00462963 </v>
   <v>       0.00462963 </v>
   <v>       0.00462963 </v>
   <v>       0.00462963 </v>
   <v>       0.00462963 </v>
   <v>       0.00462963 </v>
   <v>       0.00462963 </v>
   <v>       0.00462963 </v>
   <v>       0.00231481 </v>
   <v>       0.00231481 </v>
   <v>       0.00462963 </v>
   <v>       0.00462963 </v>
   <v>       0.00462963 </v>
   <v>       0.00462963 </v>
   <v>       0.00462963 </v>
   <v>       0.00462963 </v>
   <v>       0.00462963 </v>
   <v>       0.00462963 </v>
   <v>       0.00462963 </v>
   <v>       0.00462963 </v>
   <v>       0.00462963 </v>
   <v>       0.00231481 </v>
   <v>       0.00231481 </v>
   <v>       0.00462963 </v>
   <v>       0.00462963 </v>
   <v>       0.00462963 </v>
   <v>       0.00462963 </v>
   <v>       0.00462963 </v>
   <v>       0.00462963 </v>
   <v>       0.00462963 </v>
   <v>       0.00462963 </v>
   <v>       0.00462963 </v>
   <v>       0.00462963 </v>
   <v>       0.00462963 </v>
   <v>       0.00231481 </v>
   <v>       0.00231481 </v>
   <v>       0.00462963 </v>
   <v>       0.00462963 </v>
   <v>       0.00462963 </v>
   <v>       0.00462963 </v>
   <v>       0.00462963 </v>
   <v>       0.00462963 </v>
   <v>       0.00462963 </v>
   <v>       0.00462963 </v>
   <v>       0.00462963 </v>
   <v>       0.00462963 </v>
   <v>       0.00462963 </v>
   <v>       0.00231481 </v>
   <v>       0.00231481 </v>
   <v>       0.00462963 </v>
   <v>       0.00462963 </v>
   <v>       0.00462963 </v>
   <v>       0.00462963 </v>
   <v>       0.00462963 </v>
   <v>       0.00462963 </v>
   <v>       0.00462963 </v>
   <v>       0.00462963 </v>
   <v>       0.00462963 </v>
   <v>       0.00462963 </v>
   <v>       0.00462963 </v>
   <v>       0.00231481 </v>
   <v>       0.00231481 </v>
   <v>       0.00462963 </v>
   <v>       0.00462963 </v>
   <v>       0.00462963 </v>
   <v>       0.00462963 </v>
   <v>       0.00462963 </v>
   <v>       0.00462963 </v>
   <v>       0.00462963 </v>
   <v>       0.00462963 </v>
   <v>       0.00462963 </v>
   <v>       0.00462963 </v>
   <v>       0.00462963 </v>
   <v>       0.00231481 </v>
   <v>       0.00231481 </v>
   <v>       0.00462963 </v>
   <v>       0.00462963 </v>
   <v>       0.00462963 </v>
   <v>       0.00462963 </v>
   <v>       0.00462963 </v>
   <v>       0.00462963 </v>
   <v>       0.00462963 </v>
   <v>       0.00462963 </v>
   <v>       0.00462963 </v>
   <v>       0.00462963 </v>
   <v>       0.00462963 </v>
   <v>       0.00231481 </v>
   <v>       0.00231481 </v>
   <v>       0.00462963 </v>
   <v>       0.00462963 </v>
   <v>       0.00462963 </v>
   <v>       0.00462963 </v>
   <v>       0.00462963 </v>
   <v>       0.00462963 </v>
   <v>       0.00462963 </v>
   <v>       0.00462963 </v>
   <v>       0.00462963 </v>
   <v>       0.00462963 </v>
   <v>       0.00462963 </v>
   <v>       0.00231481 </v>
   <v>       0.00231481 </v>
   <v>       0.00462963 </v>
   <v>       0.00462963 </v>
   <v>       0.00462963 </v>
   <v>       0.00462963 </v>
   <v>       0.00462963 </v>
   <v>       0.00462963 </v>
   <v>       0.00462963 </v>
   <v>       0.00462963 </v>
   <v>       0.00462963 </v>
   <v>       0.00462963 </v>
   <v>       0.00462963 </v>
   <v>       0.00231481 </v>
   <v>       0.00231481 </v>
   <v>       0.00462963 </v>
   <v>       0.00462963 </v>
   <v>       0.00462963 </v>
   <v>       0.00462963 </v>
   <v>       0.00462963 </v>
   <v>       0.00462963 </v>
   <v>       0.00462963 </v>
   <v>       0.00462963 </v>
   <v>       0.00462963 </v>
   <v>       0.00462963 </v>
   <v>       0.00462963 </v>
   <v>       0.00231481 </v>
   <v>       0.00231481 </v>
   <v>       0.00462963 </v>
   <v>       0.00462963 </v>
   <v>       0.00462963 </v>
   <v>       0.00462963 </v>
   <v>       0.00462963 </v>
   <v>       0.00462963 </v>
   <v>       0.00462963 </v>
   <v>       0.00462963 </v>
   <v>       0.00462963 </v>
   <v>       0.00462963 </v>
   <v>       0.00462963 </v>
   <v>       0.00231481 </v>
   <v>       0.00231481 </v>
   <v>       0.00462963 </v>
   <v>       0.00462963 </v>
   <v>       0.00462963 </v>
   <v>       0.00462963 </v>
   <v>       0.00462963 </v>
   <v>       0.00462963 </v>
   <v>       0.00462963 </v>
   <v>       0.00462963 </v>
   <v>       0.00462963 </v>
   <v>       0.00462963 </v>
   <v>       0.00462963 </v>
   <v>       0.00231481 </v>
   <v>       0.00231481 </v>
   <v>       0.00462963 </v>
   <v>       0.00462963 </v>
   <v>       0.00462963 </v>
   <v>       0.00462963 </v>
   <v>       0.00462963 </v>
   <v>       0.00462963 </v>
   <v>       0.00462963 </v>
   <v>       0.00462963 </v>
   <v>       0.00462963 </v>
   <v>       0.00462963 </v>
   <v>       0.00462963 </v>
   <v>       0.00231481 </v>
   <v>       0.00231481 </v>
   <v>       0.00462963 </v>
   <v>       0.00462963 </v>
   <v>       0.00462963 </v>
   <v>       0.00462963 </v>
   <v>       0.00462963 </v>
   <v>       0.00462963 </v>
   <v>       0.00462963 </v>
   <v>       0.00462963 </v>
   <v>       0.00462963 </v>
   <v>       0.00462963 </v>
   <v>       0.00462963 </v>
   <v>       0.00231481 </v>
   <v>       0.00231481 </v>
   <v>       0.00462963 </v>
   <v>       0.00462963 </v>
   <v>       0.00462963 </v>
   <v>       0.00462963 </v>
   <v>       0.00462963 </v>
   <v>       0.00462963 </v>
   <v>       0.00462963 </v>
   <v>       0.00462963 </v>
   <v>       0.00462963 </v>
   <v>       0.00462963 </v>
   <v>       0.00462963 </v>
   <v>       0.00231481 </v>
   <v>       0.00115741 </v>
   <v>       0.00231481 </v>
   <v>       0.00231481 </v>
   <v>       0.00231481 </v>
   <v>       0.00231481 </v>
   <v>       0.00231481 </v>
   <v>       0.00231481 </v>
   <v>       0.00231481 </v>
   <v>       0.00231481 </v>
   <v>       0.00231481 </v>
   <v>       0.00231481 </v>
   <v>       0.00231481 </v>
   <v>       0.00115741 </v>
  </varray>
 </kpoints>
 <parameters>
  <separator name="general" >
   <i type="string" name="SYSTEM">gr</i>
   <i type="logical" name="LCOMPAT"> F  </i>
  </separator>
  <separator name="electronic" >
   <i type="string" name="PREC">accura</i>
   <i name="ENMAX">   2000.00000000</i>
   <i name="ENAUG">    644.87300000</i>
   <i name="EDIFF">      0.00000000</i>
   <i type="int" name="IALGO">    68</i>
   <i type="int" name="IWAVPR">    11</i>
   <i type="int" name="NBANDS">    12</i>
   <i name="NELECT">     16.00000000</i>
   <i type="int" name="TURBO">     0</i>
   <i type="int" name="IRESTART">     0</i>
   <i type="int" name="NREBOOT">     0</i>
   <i type="int" name="NMIN">     0</i>
   <i name="EREF">      0.00000000</i>
   <separator name="electronic smearing" >
    <i type="int" name="ISMEAR">     0</i>
    <i name="SIGMA">      0.05000000</i>
    <i name="KSPACING">      0.50000000</i>
    <i type="logical" name="KGAMMA"> T  </i>
   </separator>
   <separator name="electronic projectors" >
    <i type="logical" name="LREAL"> F  </i>
    <v name="ROPT">      0.00000000</v>
    <i type="int" name="LMAXPAW">  -100</i>
    <i type="int" name="LMAXMIX">     2</i>
    <i type="logical" name="NLSPLINE"> F  </i>
   </separator>
   <separator name="electronic startup" >
    <i type="int" name="ISTART">     0</i>
    <i type="int" name="ICHARG">     2</i>
    <i type="int" name="INIWAV">     1</i>
   </separator>
   <separator name="electronic spin" >
    <i type="int" name="ISPIN">     1</i>
    <i type="logical" name="LNONCOLLINEAR"> F  </i>
    <v name="MAGMOM">      1.00000000      1.00000000      1.00000000      1.00000000</v>
    <i name="NUPDOWN">     -1.00000000</i>
    <i type="logical" name="LSORBIT"> F  </i>
    <v name="SAXIS">      0.00000000      0.00000000      1.00000000</v>
    <i type="logical" name="LSPIRAL"> F  </i>
    <v name="QSPIRAL">      0.00000000      0.00000000      0.00000000</v>
    <i type="logical" name="LZEROZ"> F  </i>
   </separator>
   <separator name="electronic exchange-correlation" >
    <i type="logical" name="LASPH"> F  </i>
    <i type="logical" name="LMETAGGA"> F  </i>
   </separator>
   <separator name="electronic convergence" >
    <i type="int" name="NELM">   100</i>
    <i type="int" name="NELMDL">    -3</i>
    <i type="int" name="NELMIN">     5</i>
    <i name="ENINI">   2000.00000000</i>
    <separator name="electronic convergence detail" >
     <i type="logical" name="LDIAG"> T  </i>
     <i type="logical" name="LSUBROT"> F  </i>
     <i name="WEIMIN">      0.00100000</i>
     <i name="EBREAK">      0.00000000</i>
     <i name="DEPER">      0.30000000</i>
     <i type="int" name="NRMM">     4</i>
     <i name="TIME">      0.40000000</i>
    </separator>
   </separator>
   <separator name="electronic mixer" >
    <i name="AMIX">      0.40000000</i>
    <i name="BMIX">      1.00000000</i>
    <i name="AMIN">      0.10000000</i>
    <i name="AMIX_MAG">      1.60000000</i>
    <i name="BMIX_MAG">      1.00000000</i>
    <separator name="electronic mixer details" >
     <i type="int" name="IMIX">     4</i>
     <i type="int" name="MAXMIX">   -45</i>
     <i name="WC">    100.00000000</i>
     <i type="int" name="INIMIX">     1</i>
     <i type="int" name="MIXPRE">     1</i>
     <i type="int" name="MREMOVE">     5</i>
    </separator>
   </separator>
   <separator name="electronic dipolcorrection" >
    <i type="logical" name="LDIPOL"> F  </i>
    <i type="logical" name="LMONO"> F  </i>
    <i type="int" name="IDIPOL">     0</i>
    <i name="EPSILON">      1.00000000</i>
    <v name="DIPOL">   -100.00000000   -100.00000000   -100.00000000</v>
    <i name="EFIELD">      0.00000000</i>
   </separator>
  </separator>
  <separator name="grids" >
   <i type="int" name="NGX">    64</i>
   <i type="int" name="NGY">    36</i>
   <i type="int" name="NGZ">   294</i>
   <i type="int" name="NGXF">   128</i>
   <i type="int" name="NGYF">    72</i>
   <i type="int" name="NGZF">   588</i>
   <i type="logical" name="ADDGRID"> F  </i>
  </separator>
  <separator name="ionic" >
   <i type="int" name="NSW">   400</i>
   <i type="int" name="IBRION">     1</i>
   <i type="int" name="ISIF">     2</i>
   <i name="PSTRESS">      0.00000000</i>
   <i name="EDIFFG">     -0.00000100</i>
   <i type="int" name="NFREE">     0</i>
   <i name="POTIM">      0.50000000</i>
   <i name="SMASS">     -3.00000000</i>
   <i name="SCALEE">      1.00000000</i>
  </separator>
  <separator name="ionic md" >
   <i name="TEBEG">      0.00010000</i>
   <i name="TEEND">      0.00010000</i>
   <i type="int" name="NBLOCK">     1</i>
   <i type="int" name="KBLOCK">   400</i>
   <i type="int" name="NPACO">   256</i>
   <i name="APACO">     16.00000000</i>
  </separator>
  <separator name="symmetry" >
   <i type="int" name="ISYM">     2</i>
   <i name="SYMPREC">      0.00001000</i>
  </separator>
  <separator name="dos" >
   <i type="logical" name="LORBIT"> F  </i>
   <v name="RWIGS">     -1.00000000</v>
   <i type="int" name="NEDOS">   301</i>
   <i name="EMIN">     10.00000000</i>
   <i name="EMAX">    -10.00000000</i>
   <i name="EFERMI">      0.00000000</i>
  </separator>
  <separator name="writing" >
   <i type="int" name="NWRITE">     2</i>
   <i type="logical" name="LWAVE"> F  </i>
   <i type="logical" name="LCHARG"> F  </i>
   <i type="logical" name="LPARD"> F  </i>
   <i type="logical" name="LVTOT"> F  </i>
   <i type="logical" name="LVHAR"> F  </i>
   <i type="logical" name="LELF"> F  </i>
   <i type="logical" name="LOPTICS"> F  </i>
   <v name="STM">      0.00000000      0.00000000      0.00000000      0.00000000      0.00000000      0.00000000      0.00000000</v>
  </separator>
  <separator name="performance" >
   <i type="int" name="NPAR">     4</i>
   <i type="int" name="NSIM">     4</i>
   <i type="int" name="NBLK">    -1</i>
   <i type="logical" name="LPLANE"> T  </i>
   <i type="logical" name="LSCALAPACK"> F  </i>
   <i type="logical" name="LSCAAWARE"> F  </i>
   <i type="logical" name="LSCALU"> F  </i>
   <i type="logical" name="LASYNC"> F  </i>
   <i type="logical" name="LORBITALREAL"> F  </i>
  </separator>
  <separator name="miscellaneous" >
   <i type="int" name="IDIOT">     3</i>
   <i type="logical" name="LMUSIC"> F  </i>
   <v name="POMASS">     12.01100000</v>
   <v name="DARWINR">      0.00000000</v>
   <v name="DARWINV">      1.00000000</v>
   <i type="logical" name="LCORR"> T  </i>
  </separator>
  <i type="logical" name="GGA_COMPAT"> T  </i>
  <i type="logical" name="LBERRY"> F  </i>
  <i type="int" name="ICORELEVEL">     0</i>
  <i type="logical" name="LDAU"> F  </i>
  <i type="int" name="I_CONSTRAINED_M">     0</i>
  <separator name="electronic exchange-correlation" >
   <i type="string" name="GGA">--</i>
   <i type="int" name="VOSKOWN">     0</i>
   <i type="logical" name="LHFCALC"> F  </i>
   <i type="string" name="PRECFOCK"></i>
   <i type="logical" name="LSYMGRAD"> F  </i>
   <i type="logical" name="LHFONE"> F  </i>
   <i type="logical" name="LRHFCALC"> F  </i>
   <i type="logical" name="LTHOMAS"> F  </i>
   <i type="logical" name="LMODELHF"> F  </i>
   <i name="ENCUT4O">     -1.00000000</i>
   <i type="int" name="EXXOEP">     0</i>
   <i type="int" name="FOURORBIT">     0</i>
   <i name="AEXX">      0.00000000</i>
   <i name="HFALPHA">      0.00000000</i>
   <i name="MCALPHA">      0.00000000</i>
   <i name="ALDAX">      1.00000000</i>
   <i name="AGGAX">      1.00000000</i>
   <i name="ALDAC">      1.00000000</i>
   <i name="AGGAC">      1.00000000</i>
   <i type="int" name="NKREDX">     1</i>
   <i type="int" name="NKREDY">     1</i>
   <i type="int" name="NKREDZ">     1</i>
   <i type="logical" name="SHIFTRED"> F  </i>
   <i type="logical" name="ODDONLY"> F  </i>
   <i type="logical" name="EVENONLY"> F  </i>
   <i type="int" name="LMAXFOCK">     0</i>
   <i type="int" name="NMAXFOCKAE">     0</i>
   <i type="logical" name="LFOCKAEDFT"> F  </i>
   <i name="HFSCREEN">      0.00000000</i>
   <i name="HFSCREENC">      0.00000000</i>
   <i type="int" name="NBANDSGWLOW">     0</i>
  </separator>
  <separator name="vdW DFT" >
   <i type="logical" name="LUSE_VDW"> F  </i>
   <i name="Zab_VDW">     -0.84910000</i>
   <i name="PARAM1">      0.12340000</i>
   <i name="PARAM2">      1.00000000</i>
   <i name="PARAM3">      0.00000000</i>
  </separator>
  <separator name="model GW" >
   <i type="int" name="MODEL_GW">     0</i>
   <i name="MODEL_EPS0">     31.62568521</i>
   <i name="MODEL_ALPHA">      1.00000000</i>
  </separator>
  <separator name="linear response parameters" >
   <i type="logical" name="LEPSILON"> F  </i>
   <i type="logical" name="LRPA"> F  </i>
   <i type="logical" name="LNABLA"> F  </i>
   <i type="logical" name="LVEL"> F  </i>
   <i type="int" name="KINTER">     0</i>
   <i name="CSHIFT">      0.10000000</i>
   <i name="OMEGAMAX">     -1.00000000</i>
   <i name="DEG_THRESHOLD">      0.00200000</i>
  </separator>
  <separator name="orbital magnetization" >
   <i type="logical" name="NUCIND"> F  </i>
   <v name="MAGPOS">      0.00000000      0.00000000      0.00000000</v>
   <i type="logical" name="LNICSALL"> T  </i>
   <i type="logical" name="ORBITALMAG"> F  </i>
   <i type="logical" name="LMAGBLOCH"> F  </i>
   <i type="logical" name="LCHIMAG"> F  </i>
   <i type="logical" name="LGAUGE"> T  </i>
   <i type="int" name="MAGATOM">     0</i>
   <v name="MAGDIPOL">      0.00000000      0.00000000      0.00000000</v>
   <v name="AVECCONST">      0.00000000      0.00000000      0.00000000</v>
  </separator>
  <separator name="response functions" >
   <i type="logical" name="LADDER"> F  </i>
   <i type="logical" name="LFXC"> F  </i>
   <i type="logical" name="LHARTREE"> T  </i>
   <i type="int" name="IBSE">     0</i>
   <i type="logical" name="LTCTE"> F  </i>
   <i type="logical" name="LTETE"> F  </i>
   <i type="logical" name="LTRIPLET"> F  </i>
   <i type="logical" name="LFXCEPS"> F  </i>
   <i type="logical" name="LFXHEG"> F  </i>
   <i type="logical" name="L2ORDER"> F  </i>
   <i type="logical" name="LUSEW"> F  </i>
   <i name="ENCUTGW">     -2.00000000</i>
   <i name="ENCUTGWSOFT">     -2.00000000</i>
   <i name="ENCUTLF">     -1.00000000</i>
   <i type="int" name="LMAXMP2">    -1</i>
   <i name="SCISSOR">      0.00000000</i>
   <i type="int" name="NOMEGA">     0</i>
   <i type="int" name="NOMEGAR">     0</i>
   <i type="int" name="NBANDSGW">    -1</i>
   <i type="int" name="NBANDSO">    -1</i>
   <i type="int" name="NBANDSV">    -1</i>
   <i type="int" name="NELM">   100</i>
   <i type="int" name="DIM">     3</i>
   <i type="int" name="ANTIRES">     0</i>
   <i name="OMEGAMAX">    -30.00000000</i>
   <i name="OMEGAMIN">    -30.00000000</i>
   <i name="OMEGATL">   -200.00000000</i>
   <i type="int" name="OMEGAGRID">     0</i>
   <i name="CSHIFT">     -0.10000000</i>
   <i type="logical" name="SELFENERGY"> F  </i>
   <i type="logical" name="LSPECTRAL"> F  </i>
   <i type="logical" name="ODDONLYGW"> F  </i>
   <i type="logical" name="EVENONLYGW"> F  </i>
   <i type="int" name="NKREDLFX">     1</i>
   <i type="int" name="NKREDLFY">     1</i>
   <i type="int" name="NKREDLFZ">     1</i>
   <i type="int" name="MAXMEM">  1800</i>
   <i type="int" name="TELESCOPE">     0</i>
   <i type="int" name="TAUPAR">     1</i>
  </separator>
  <separator name="External order field" >
   <i name="OFIELD_KAPPA">      0.00000000</i>
   <v name="OFIELD_K">      0.00000000      0.00000000      0.00000000</v>
   <i name="OFIELD_Q6_NEAR">      0.00000000</i>
   <i name="OFIELD_Q6_FAR">      0.00000000</i>
   <i name="OFIELD_A">      0.00000000</i>
  </separator>
 </parameters>
 <atominfo>
  <atoms>       4 </atoms>
  <types>       1 </types>
  <array name="atoms" >
   <dimension dim="1">ion</dimension>
   <field type="string">element</field>
   <field type="int">atomtype</field>
   <set>
    <rc><c>C </c><c>   1</c></rc>
    <rc><c>C </c><c>   1</c></rc>
    <rc><c>C </c><c>   1</c></rc>
    <rc><c>C </c><c>   1</c></rc>
   </set>
  </array>
  <array name="atomtypes" >
   <dimension dim="1">type</dimension>
   <field type="int">atomspertype</field>
   <field type="string">element</field>
   <field>mass</field>
   <field>valence</field>
   <field type="string">pseudopotential</field>
   <set>
    <rc><c>   4</c><c>C </c><c>     12.01100000</c><c>      4.00000000</c><c> PAW_PBE C 08Apr2002                    </c></rc>
   </set>
  </array>
 </atominfo>
 <structure name="initialpos" >
  <crystal>
   <varray name="basis" >
    <v>       4.26543127       0.00000000       0.00000000 </v>
    <v>       0.00000000       2.49259035       0.00000000 </v>
    <v>       0.00000000       0.00000000      19.83055311 </v>
   </varray>
   <i name="volume">    210.83790140 </i>
   <varray name="rec_basis" >
    <v>       0.23444288       0.00000000       0.00000000 </v>
    <v>       0.00000000       0.40118907       0.00000000 </v>
    <v>       0.00000000       0.00000000       0.05042724 </v>
   </varray>
  </crystal>
  <varray name="positions" >
   <v>       0.00026297       0.00000000       0.00000000 </v>
   <v>       0.16640370       0.50000000       0.00000000 </v>
   <v>       0.50026297       0.50000000       0.00000000 </v>
   <v>       0.66640370       0.00000000       0.00000000 </v>
  </varray>
 </structure>
 <calculation>
  <scstep>
   <time name="dav">  260.75  261.71</time>
   <time name="total">  262.64  263.73</time>
   <energy>
    <i name="alphaZ">      6.18334092 </i>
    <i name="ewald">   2529.64085206 </i>
    <i name="hartreedc">  -2956.73279758 </i>
    <i name="XCdc">     54.98188317 </i>
    <i name="pawpsdc">    151.32577238 </i>
    <i name="pawaedc">   -155.92769107 </i>
    <i name="eentropy">     -0.00193524 </i>
    <i name="bandstr">    -30.13820731 </i>
    <i name="atom">    588.62352690 </i>
    <i name="e_fr_energy">    187.95474424 </i>
    <i name="e_wo_entrp">    187.95667948 </i>
    <i name="e_0_energy">    187.95571186 </i>
   </energy>
  </scstep>
  <scstep>
   <time name="dav">  396.00  397.46</time>
   <time name="total">  396.06  397.52</time>
   <energy>
    <i name="e_fr_energy">     -9.89577122 </i>
    <i name="e_wo_entrp">     -9.89532065 </i>
    <i name="e_0_energy">     -9.89554594 </i>
   </energy>
  </scstep>
  <scstep>
   <time name="dav">  292.71  293.68</time>
   <time name="total">  316.81  317.86</time>
   <energy>
    <i name="e_fr_energy">    -38.32696791 </i>
    <i name="e_wo_entrp">    -38.32696777 </i>
    <i name="e_0_energy">    -38.32696784 </i>
   </energy>
  </scstep>
  <scstep>
   <time name="diag">   54.52   56.23</time>
   <time name="diis">  249.29  249.82</time>
   <time name="orth">    2.79    3.51</time>
   <time name="total">  329.07  332.41</time>
   <energy>
    <i name="e_fr_energy">    -37.66945528 </i>
    <i name="e_wo_entrp">    -37.66944159 </i>
    <i name="e_0_energy">    -37.66944843 </i>
   </energy>
  </scstep>
  <scstep>
   <time name="diag">   63.12   64.28</time>
   <time name="diis">  268.44  271.08</time>
   <time name="orth">    2.53    2.93</time>
   <time name="total">  360.94  365.49</time>
   <energy>
    <i name="e_fr_energy">    -36.92464366 </i>
    <i name="e_wo_entrp">    -36.92461891 </i>
    <i name="e_0_energy">    -36.92463128 </i>
   </energy>
  </scstep>
  <scstep>
   <time name="diag">   63.26   64.01</time>
   <time name="diis">  287.04  289.00</time>
   <time name="orth">    2.94    3.41</time>
   <time name="total">  380.78  384.18</time>
   <energy>
    <i name="e_fr_energy">    -36.92598529 </i>
    <i name="e_wo_entrp">    -36.92595800 </i>
    <i name="e_0_energy">    -36.92597164 </i>
   </energy>
  </scstep>
  <scstep>
   <time name="diag">   63.23   64.02</time>
   <time name="diis">  265.36  266.39</time>
   <time name="orth">    2.41    2.98</time>
   <time name="total">  355.06  357.69</time>
   <energy>
    <i name="e_fr_energy">    -36.91674642 </i>
    <i name="e_wo_entrp">    -36.91672086 </i>
    <i name="e_0_energy">    -36.91673364 </i>
   </energy>
  </scstep>
  <scstep>
   <time name="diag">   63.20   63.89</time>
   <time name="diis">  276.35  276.96</time>
   <time name="orth">    3.34    3.66</time>
   <time name="total">  366.08  367.82</time>
   <energy>
    <i name="e_fr_energy">    -36.91101363 </i>
    <i name="e_wo_entrp">    -36.91098759 </i>
    <i name="e_0_energy">    -36.91100061 </i>
   </energy>
  </scstep>
  <scstep>
   <time name="diag">   63.46   63.90</time>
   <time name="diis">  276.37  276.61</time>
   <time name="orth">    2.91    3.20</time>
   <time name="total">  369.19  370.24</time>
   <energy>
    <i name="e_fr_energy">    -36.91080529 </i>
    <i name="e_wo_entrp">    -36.91077840 </i>
    <i name="e_0_energy">    -36.91079184 </i>
   </energy>
  </scstep>
  <scstep>
   <time name="diag">   63.51   63.91</time>
   <time name="diis">  289.27  290.40</time>
   <time name="orth">    3.49    3.81</time>
   <time name="total">  382.31  384.26</time>
   <energy>
    <i name="e_fr_energy">    -36.91062860 </i>
    <i name="e_wo_entrp">    -36.91060221 </i>
    <i name="e_0_energy">    -36.91061541 </i>
   </energy>
  </scstep>
  <scstep>
   <time name="diag">   62.29   63.90</time>
   <time name="diis">  274.88  275.55</time>
   <time name="orth">    2.55    3.11</time>
   <time name="total">  367.57  370.57</time>
   <energy>
    <i name="e_fr_energy">    -36.91312950 </i>
    <i name="e_wo_entrp">    -36.91310333 </i>
    <i name="e_0_energy">    -36.91311641 </i>
   </energy>
  </scstep>
  <scstep>
   <time name="diag">   63.54   64.25</time>
   <time name="diis">  301.52  302.26</time>
   <time name="orth">    2.77    3.30</time>
   <time name="total">  396.93  399.04</time>
   <energy>
    <i name="e_fr_energy">    -36.91356903 </i>
    <i name="e_wo_entrp">    -36.91354266 </i>
    <i name="e_0_energy">    -36.91355584 </i>
   </energy>
  </scstep>
  <scstep>
   <time name="diag">   71.93   72.63</time>
   <time name="diis">  318.19  319.56</time>
   <time name="orth">    2.62    3.18</time>
   <time name="total">  422.17  425.14</time>
   <energy>
    <i name="e_fr_energy">    -36.91382941 </i>
    <i name="e_wo_entrp">    -36.91380300 </i>
    <i name="e_0_energy">    -36.91381620 </i>
   </energy>
  </scstep>
  <scstep>
   <time name="diag">   72.96   73.90</time>
   <time name="diis">  292.89  294.84</time>
   <time name="orth">    2.95    3.46</time>
   <time name="total">  399.09  403.00</time>
   <energy>
    <i name="e_fr_energy">    -36.91391238 </i>
    <i name="e_wo_entrp">    -36.91388603 </i>
    <i name="e_0_energy">    -36.91389921 </i>
   </energy>
  </scstep>
  <scstep>
   <time name="diag">   71.30   73.54</time>
   <time name="diis">  295.05  295.95</time>
   <time name="orth">    2.86    3.18</time>
   <time name="total">  398.74  402.35</time>
   <energy>
    <i name="e_fr_energy">    -36.91392142 </i>
    <i name="e_wo_entrp">    -36.91389505 </i>
    <i name="e_0_energy">    -36.91390823 </i>
   </energy>
  </scstep>
  <scstep>
   <time name="diag">   71.71   72.57</time>
   <time name="diis">  296.73  297.80</time>
   <time name="orth">    2.95    3.24</time>
   <time name="total">  398.99  401.32</time>
   <energy>
    <i name="e_fr_energy">    -36.91393371 </i>
    <i name="e_wo_entrp">    -36.91390733 </i>
    <i name="e_0_energy">    -36.91392052 </i>
   </energy>
  </scstep>
  <scstep>
   <time name="diag">   72.43   73.11</time>
   <time name="diis">  298.62  298.85</time>
   <time name="orth">    2.64    2.98</time>
   <time name="total">  401.96  403.38</time>
   <energy>
    <i name="e_fr_energy">    -36.91393808 </i>
    <i name="e_wo_entrp">    -36.91391171 </i>
    <i name="e_0_energy">    -36.91392489 </i>
   </energy>
  </scstep>
  <scstep>
   <time name="diag">   72.88   73.52</time>
   <time name="diis">  293.47  293.82</time>
   <time name="orth">    2.43    3.17</time>
   <time name="total">  399.44  401.30</time>
   <energy>
    <i name="e_fr_energy">    -36.91393943 </i>
    <i name="e_wo_entrp">    -36.91391306 </i>
    <i name="e_0_energy">    -36.91392624 </i>
   </energy>
  </scstep>
  <scstep>
   <time name="diag">   73.06   73.49</time>
   <time name="diis">  306.91  307.58</time>
   <time name="orth">    3.10    3.43</time>
   <time name="total">  412.35  413.85</time>
   <energy>
    <i name="e_fr_energy">    -36.91394012 </i>
    <i name="e_wo_entrp">    -36.91391375 </i>
    <i name="e_0_energy">    -36.91392694 </i>
   </energy>
  </scstep>
  <scstep>
   <time name="diag">   71.68   72.42</time>
   <time name="diis">  239.33  240.12</time>
   <time name="orth">    2.63    2.95</time>
   <time name="total">  343.15  345.09</time>
   <energy>
    <i name="e_fr_energy">    -36.91394018 </i>
    <i name="e_wo_entrp">    -36.91391381 </i>
    <i name="e_0_energy">    -36.91392699 </i>
   </energy>
  </scstep>
  <scstep>
   <time name="diag">   73.12   73.75</time>
   <time name="diis">  225.30  225.66</time>
   <time name="orth">    2.69    3.05</time>
   <time name="total">  328.96  330.76</time>
   <energy>
    <i name="e_fr_energy">    -36.91394020 </i>
    <i name="e_wo_entrp">    -36.91391383 </i>
    <i name="e_0_energy">    -36.91392701 </i>
   </energy>
  </scstep>
  <scstep>
   <time name="diag">   66.87   67.67</time>
   <time name="diis">  202.05  202.96</time>
   <time name="orth">    2.55    2.95</time>
   <time name="total">  298.23  301.73</time>
   <energy>
    <i name="e_fr_energy">    -36.91394020 </i>
    <i name="e_wo_entrp">    -36.91391383 </i>
    <i name="e_0_energy">    -36.91392701 </i>
   </energy>
  </scstep>
  <scstep>
   <time name="diag">   67.15   67.84</time>
   <time name="diis">  198.13  198.74</time>
   <time name="orth">    2.76    3.15</time>
   <time name="total">  296.71  298.59</time>
   <energy>
    <i name="e_fr_energy">    -36.91394020 </i>
    <i name="e_wo_entrp">    -36.91391383 </i>
    <i name="e_0_energy">    -36.91392701 </i>
   </energy>
  </scstep>
  <scstep>
   <time name="diag">   73.07   74.04</time>
   <time name="diis">  183.19  184.22</time>
   <time name="orth">    3.27    3.60</time>
   <time name="total">  289.67  292.29</time>
   <energy>
    <i name="e_fr_energy">    -36.91394020 </i>
    <i name="e_wo_entrp">    -36.91391383 </i>
    <i name="e_0_energy">    -36.91392701 </i>
   </energy>
  </scstep>
  <scstep>
   <time name="diag">   70.94   72.57</time>
   <time name="diis">  174.98  176.34</time>
   <time name="orth">    2.44    3.07</time>
   <time name="total">  276.17  282.74</time>
   <energy>
    <i name="e_fr_energy">    -36.91394020 </i>
    <i name="e_wo_entrp">    -36.91391383 </i>
    <i name="e_0_energy">    -36.91392701 </i>
   </energy>
  </scstep>
  <scstep>
   <time name="diag">   72.23   74.38</time>
   <time name="diis">  168.07  168.54</time>
   <time name="orth">    3.07    3.64</time>
   <time name="total">  245.46  248.66</time>
   <energy>
    <i name="alphaZ">      6.18334092 </i>
    <i name="ewald">   2529.64085206 </i>
    <i name="hartreedc">  -3023.72830157 </i>
    <i name="XCdc">     57.36547077 </i>
    <i name="pawpsdc">    273.63845712 </i>
    <i name="pawaedc">   -278.77167969 </i>
    <i name="eentropy">     -0.00002637 </i>
    <i name="bandstr">   -189.86558034 </i>
    <i name="atom">    588.62352690 </i>
    <i name="e_fr_energy">    -36.91394020 </i>
    <i name="e_wo_entrp">    -36.91391383 </i>
    <i name="e_0_energy">    -36.91392701 </i>
   </energy>
  </scstep>
  <structure>
   <crystal>
    <varray name="basis" >
     <v>       4.26543127       0.00000000       0.00000000 </v>
     <v>       0.00000000       2.49259035       0.00000000 </v>
     <v>       0.00000000       0.00000000      19.83055311 </v>
    </varray>
    <i name="volume">    210.83790140 </i>
    <varray name="rec_basis" >
     <v>       0.23444288       0.00000000       0.00000000 </v>
     <v>       0.00000000       0.40118907       0.00000000 </v>
     <v>       0.00000000       0.00000000       0.05042724 </v>
    </varray>
   </crystal>
   <varray name="positions" >
    <v>       0.00026297       0.00000000       0.00000000 </v>
    <v>       0.16640370       0.50000000       0.00000000 </v>
    <v>       0.50026297       0.50000000       0.00000000 </v>
    <v>       0.66640370       0.00000000       0.00000000 </v>
   </varray>
  </structure>
  <varray name="forces" >
   <v>       0.00243118       0.00000000       0.00000000 </v>
   <v>      -0.00243118      -0.00000000       0.00000000 </v>
   <v>       0.00243118      -0.00000000       0.00000000 </v>
   <v>      -0.00243118       0.00000000       0.00000000 </v>
  </varray>
  <varray name="stress" >
   <v>       0.01484297       0.00000000       0.00000000 </v>
   <v>       0.00000000     -17.13247609       0.00000000 </v>
   <v>       0.00000000       0.00000000      -0.01019274 </v>
  </varray>
  <energy>
   <i name="e_fr_energy">    -36.91394020 </i>
   <i name="e_wo_entrp">    -36.91392701 </i>
   <i name="e_0_energy">     -0.00002637 </i>
  </energy>
  <time name="totalsc"> 9291.51 9359.19</time>
 </calculation>
 <calculation>
  <scstep>
   <time name="dav">  273.91  275.09</time>
   <time name="total">  305.01  306.32</time>
   <energy>
    <i name="alphaZ">      6.18334092 </i>
    <i name="ewald">   2529.63981327 </i>
    <i name="hartreedc">  -3023.72785092 </i>
    <i name="XCdc">     57.36544111 </i>
    <i name="pawpsdc">    273.63845731 </i>
    <i name="pawaedc">   -278.77167988 </i>
    <i name="eentropy">     -0.00002868 </i>
    <i name="bandstr">   -189.86495846 </i>
    <i name="atom">    588.62352690 </i>
    <i name="e_fr_energy">    -36.91393843 </i>
    <i name="e_wo_entrp">    -36.91390975 </i>
    <i name="e_0_energy">    -36.91392409 </i>
   </energy>
  </scstep>
  <scstep>
   <time name="diag">   71.53   72.93</time>
   <time name="diis">  295.33  295.72</time>
   <time name="orth">    2.98    3.33</time>
   <time name="total">  398.09  400.36</time>
   <energy>
    <i name="e_fr_energy">    -36.91393852 </i>
    <i name="e_wo_entrp">    -36.91390992 </i>
    <i name="e_0_energy">    -36.91392422 </i>
   </energy>
  </scstep>
  <scstep>
   <time name="diag">   71.77   72.48</time>
   <time name="diis">  302.44  302.89</time>
   <time name="orth">    2.49    2.92</time>
   <time name="total">  405.62  407.28</time>
   <energy>
    <i name="e_fr_energy">    -36.91393844 </i>
    <i name="e_wo_entrp">    -36.91390997 </i>
    <i name="e_0_energy">    -36.91392421 </i>
   </energy>
  </scstep>
  <scstep>
   <time name="diag">   72.85   73.42</time>
   <time name="diis">  299.60  299.83</time>
   <time name="orth">    2.71    3.25</time>
   <time name="total">  405.41  407.21</time>
   <energy>
    <i name="e_fr_energy">    -36.91393843 </i>
    <i name="e_wo_entrp">    -36.91390993 </i>
    <i name="e_0_energy">    -36.91392418 </i>
   </energy>
  </scstep>
  <scstep>
   <time name="diag">   69.49   70.64</time>
   <time name="diis">  303.74  304.11</time>
   <time name="orth">    3.34    3.73</time>
   <time name="total">  403.37  405.55</time>
   <energy>
    <i name="e_fr_energy">    -36.91393843 </i>
    <i name="e_wo_entrp">    -36.91390993 </i>
    <i name="e_0_energy">    -36.91392418 </i>
   </energy>
  </scstep>
  <scstep>
   <time name="diag">   69.13   70.49</time>
   <time name="diis">  231.63  232.82</time>
   <time name="orth">    2.86    3.16</time>
   <time name="total">  305.49  308.37</time>
   <energy>
    <i name="alphaZ">      6.18334092 </i>
    <i name="ewald">   2529.63981327 </i>
    <i name="hartreedc">  -3023.72744251 </i>
    <i name="XCdc">     57.36542375 </i>
    <i name="pawpsdc">    273.63662865 </i>
    <i name="pawaedc">   -278.76984353 </i>
    <i name="eentropy">     -0.00002850 </i>
    <i name="bandstr">   -189.86535738 </i>
    <i name="atom">    588.62352690 </i>
    <i name="e_fr_energy">    -36.91393843 </i>
    <i name="e_wo_entrp">    -36.91390993 </i>
    <i name="e_0_energy">    -36.91392418 </i>
   </energy>
  </scstep>
  <structure>
   <crystal>
    <varray name="basis" >
     <v>       4.26543127       0.00000000       0.00000000 </v>
     <v>       0.00000000       2.49259035       0.00000000 </v>
     <v>       0.00000000       0.00000000      19.83055311 </v>
    </varray>
    <i name="volume">    210.83790140 </i>
    <varray name="rec_basis" >
     <v>       0.23444288       0.00000000       0.00000000 </v>
     <v>       0.00000000       0.40118907       0.00000000 </v>
     <v>       0.00000000       0.00000000       0.05042724 </v>
    </varray>
   </crystal>
   <varray name="positions" >
    <v>       0.00029046       0.00000000       0.00000000 </v>
    <v>       0.16637620       0.50000000       0.00000000 </v>
    <v>       0.50029046       0.50000000       0.00000000 </v>
    <v>       0.66637620       0.00000000       0.00000000 </v>
   </varray>
  </structure>
  <varray name="forces" >
   <v>      -0.00991224       0.00000000      -0.00000000 </v>
   <v>       0.00991224      -0.00000000       0.00000000 </v>
   <v>      -0.00991224      -0.00000000      -0.00000000 </v>
   <v>       0.00991224       0.00000000       0.00000000 </v>
  </varray>
  <varray name="stress" >
   <v>      -0.02836786       0.00000000       0.00000000 </v>
   <v>       0.00000000     -17.09731115       0.00000000 </v>
   <v>       0.00000000       0.00000000      -0.01022983 </v>
  </varray>
  <energy>
   <i name="e_fr_energy">    -36.91393843 </i>
   <i name="e_wo_entrp">    -36.91392418 </i>
   <i name="e_0_energy">     -0.00002850 </i>
  </energy>
  <time name="totalsc"> 2318.27 2331.55</time>
 </calculation>
 <calculation>
  <scstep>
   <time name="dav">  280.50  282.17</time>
   <time name="total">  307.47  309.26</time>
   <energy>
    <i name="alphaZ">      6.18334092 </i>
    <i name="ewald">   2529.64064593 </i>
    <i name="hartreedc">  -3023.72779125 </i>
    <i name="XCdc">     57.36544715 </i>
    <i name="pawpsdc">    273.63663322 </i>
    <i name="pawaedc">   -278.76984798 </i>
    <i name="eentropy">     -0.00002664 </i>
    <i name="bandstr">   -189.86586855 </i>
    <i name="atom">    588.62352690 </i>
    <i name="e_fr_energy">    -36.91394030 </i>
    <i name="e_wo_entrp">    -36.91391366 </i>
    <i name="e_0_energy">    -36.91392698 </i>
   </energy>
  </scstep>
  <scstep>
   <time name="diag">   69.92   70.70</time>
   <time name="diis">  293.09  294.57</time>
   <time name="orth">    2.40    2.85</time>
   <time name="total">  391.78  394.65</time>
   <energy>
    <i name="e_fr_energy">    -36.91394035 </i>
    <i name="e_wo_entrp">    -36.91391365 </i>
    <i name="e_0_energy">    -36.91392700 </i>
   </energy>
  </scstep>
  <scstep>
   <time name="diag">   70.28   71.72</time>
   <time name="diis">  295.28  297.49</time>
   <time name="orth">    2.26    3.18</time>
   <time name="total">  394.63  399.39</time>
   <energy>
    <i name="e_fr_energy">    -36.91394031 </i>
    <i name="e_wo_entrp">    -36.91391351 </i>
    <i name="e_0_energy">    -36.91392691 </i>
   </energy>
  </scstep>
  <scstep>
   <time name="diag">   69.43   71.98</time>
   <time name="diis">  295.77  296.53</time>
   <time name="orth">    2.75    3.09</time>
   <time name="total">  396.06  399.84</time>
   <energy>
    <i name="e_fr_energy">    -36.91394031 </i>
    <i name="e_wo_entrp">    -36.91391353 </i>
    <i name="e_0_energy">    -36.91392692 </i>
   </energy>
  </scstep>
  <scstep>
   <time name="diag">   70.83   71.43</time>
   <time name="diis">  284.31  285.71</time>
   <time name="orth">    2.43    2.78</time>
   <time name="total">  385.67  388.30</time>
   <energy>
    <i name="e_fr_energy">    -36.91394031 </i>
    <i name="e_wo_entrp">    -36.91391353 </i>
    <i name="e_0_energy">    -36.91392692 </i>
   </energy>
  </scstep>
  <scstep>
   <time name="diag">   70.38   71.16</time>
   <time name="diis">  213.28  213.61</time>
   <time name="orth">    2.35    3.06</time>
   <time name="total">  312.89  314.77</time>
   <energy>
    <i name="e_fr_energy">    -36.91394031 </i>
    <i name="e_wo_entrp">    -36.91391353 </i>
    <i name="e_0_energy">    -36.91392692 </i>
   </energy>
  </scstep>
  <scstep>
   <time name="diag">   68.92   71.59</time>
   <time name="diis">  202.90  203.38</time>
   <time name="orth">    2.85    3.25</time>
   <time name="total">  276.80  280.39</time>
   <energy>
    <i name="alphaZ">      6.18334092 </i>
    <i name="ewald">   2529.64064593 </i>
    <i name="hartreedc">  -3023.72811240 </i>
    <i name="XCdc">     57.36546130 </i>
    <i name="pawpsdc">    273.63810691 </i>
    <i name="pawaedc">   -278.77132801 </i>
    <i name="eentropy">     -0.00002678 </i>
    <i name="bandstr">   -189.86555509 </i>
    <i name="atom">    588.62352690 </i>
    <i name="e_fr_energy">    -36.91394031 </i>
    <i name="e_wo_entrp">    -36.91391353 </i>
    <i name="e_0_energy">    -36.91392692 </i>
   </energy>
  </scstep>
  <structure>
   <crystal>
    <varray name="basis" >
     <v>       4.26543127       0.00000000       0.00000000 </v>
     <v>       0.00000000       2.49259035       0.00000000 </v>
     <v>       0.00000000       0.00000000      19.83055311 </v>
    </varray>
    <i name="volume">    210.83790140 </i>
    <varray name="rec_basis" >
     <v>       0.23444288       0.00000000       0.00000000 </v>
     <v>       0.00000000       0.40118907       0.00000000 </v>
     <v>       0.00000000       0.00000000       0.05042724 </v>
    </varray>
   </crystal>
   <varray name="positions" >
    <v>       0.00026838       0.00000000      -0.00000000 </v>
    <v>       0.16639828       0.50000000       0.00000000 </v>
    <v>       0.50026838       0.50000000      -0.00000000 </v>
    <v>       0.66639828       0.00000000       0.00000000 </v>
   </varray>
  </structure>
  <varray name="forces" >
   <v>      -0.00001084      -0.00000000      -0.00000000 </v>
   <v>       0.00001084       0.00000000       0.00000000 </v>
   <v>      -0.00001084       0.00000000      -0.00000000 </v>
   <v>       0.00001084      -0.00000000       0.00000000 </v>
  </varray>
  <varray name="stress" >
   <v>       0.00624659       0.00000000       0.00000000 </v>
   <v>       0.00000000     -17.12545508       0.00000000 </v>
   <v>       0.00000000       0.00000000      -0.01016636 </v>
  </varray>
  <energy>
   <i name="e_fr_energy">    -36.91394031 </i>
   <i name="e_wo_entrp">    -36.91392692 </i>
   <i name="e_0_energy">     -0.00002678 </i>
  </energy>
  <time name="totalsc"> 2560.33 2582.29</time>
 </calculation>
 <calculation>
  <scstep>
   <time name="dav">  236.38  237.49</time>
   <time name="total">  263.60  264.74</time>
   <energy>
    <i name="alphaZ">      6.18334092 </i>
    <i name="ewald">   2529.64064685 </i>
    <i name="hartreedc">  -3023.72811631 </i>
    <i name="XCdc">     57.36546140 </i>
    <i name="pawpsdc">    273.63809992 </i>
    <i name="pawaedc">   -278.77132103 </i>
    <i name="eentropy">     -0.00002678 </i>
    <i name="bandstr">   -189.86555217 </i>
    <i name="atom">    588.62352690 </i>
    <i name="e_fr_energy">    -36.91394031 </i>
    <i name="e_wo_entrp">    -36.91391353 </i>
    <i name="e_0_energy">    -36.91392692 </i>
   </energy>
  </scstep>
  <scstep>
   <time name="diag">   69.91   70.30</time>
   <time name="diis">  175.94  176.80</time>
   <time name="orth">    2.90    3.19</time>
   <time name="total">  274.67  276.39</time>
   <energy>
    <i name="e_fr_energy">    -36.91394031 </i>
    <i name="e_wo_entrp">    -36.91391353 </i>
    <i name="e_0_energy">    -36.91392692 </i>
   </energy>
  </scstep>
  <scstep>
   <time name="diag">   68.92   70.41</time>
   <time name="diis">  175.43  176.14</time>
   <time name="orth">    2.74    3.09</time>
   <time name="total">  273.47  276.21</time>
   <energy>
    <i name="e_fr_energy">    -36.91394031 </i>
    <i name="e_wo_entrp">    -36.91391353 </i>
    <i name="e_0_energy">    -36.91392692 </i>
   </energy>
  </scstep>
  <scstep>
   <time name="diag">   68.99   71.01</time>
   <time name="diis">  174.47  175.54</time>
   <time name="orth">    2.66    3.03</time>
   <time name="total">  274.76  278.89</time>
   <energy>
    <i name="e_fr_energy">    -36.91394031 </i>
    <i name="e_wo_entrp">    -36.91391353 </i>
    <i name="e_0_energy">    -36.91392692 </i>
   </energy>
  </scstep>
  <scstep>
   <time name="diag">   68.84   71.60</time>
   <time name="diis">  173.27  173.95</time>
   <time name="orth">    2.94    3.58</time>
   <time name="total">  247.20  252.23</time>
   <energy>
    <i name="alphaZ">      6.18334092 </i>
    <i name="ewald">   2529.64064685 </i>
    <i name="hartreedc">  -3023.72812394 </i>
    <i name="XCdc">     57.36546143 </i>
    <i name="pawpsdc">    273.63809957 </i>
    <i name="pawaedc">   -278.77132066 </i>
    <i name="eentropy">     -0.00002678 </i>
    <i name="bandstr">   -189.86554460 </i>
    <i name="atom">    588.62352690 </i>
    <i name="e_fr_energy">    -36.91394031 </i>
    <i name="e_wo_entrp">    -36.91391353 </i>
    <i name="e_0_energy">    -36.91392692 </i>
   </energy>
  </scstep>
  <structure>
   <crystal>
    <varray name="basis" >
     <v>       4.26543127       0.00000000       0.00000000 </v>
     <v>       0.00000000       2.49259035       0.00000000 </v>
     <v>       0.00000000       0.00000000      19.83055311 </v>
    </varray>
    <i name="volume">    210.83790140 </i>
    <varray name="rec_basis" >
     <v>       0.23444288       0.00000000       0.00000000 </v>
     <v>       0.00000000       0.40118907       0.00000000 </v>
     <v>       0.00000000       0.00000000       0.05042724 </v>
    </varray>
   </crystal>
   <varray name="positions" >
    <v>       0.00026836      -0.00000000      -0.00000000 </v>
    <v>       0.16639831       0.50000000       0.00000000 </v>
    <v>       0.50026836       0.50000000      -0.00000000 </v>
    <v>       0.66639831       0.00000000       0.00000000 </v>
   </varray>
  </structure>
  <varray name="forces" >
   <v>       0.00001192       0.00000000       0.00000000 </v>
   <v>      -0.00001192       0.00000000       0.00000000 </v>
   <v>       0.00001192       0.00000000       0.00000000 </v>
   <v>      -0.00001192      -0.00000000       0.00000000 </v>
  </varray>
  <varray name="stress" >
   <v>       0.00634979       0.00000000       0.00000000 </v>
   <v>       0.00000000     -17.12555841       0.00000000 </v>
   <v>       0.00000000       0.00000000      -0.01018030 </v>
  </varray>
  <energy>
   <i name="e_fr_energy">    -36.91394031 </i>
   <i name="e_wo_entrp">    -36.91392692 </i>
   <i name="e_0_energy">     -0.00002678 </i>
  </energy>
  <time name="totalsc"> 1430.31 1446.46</time>
 </calculation>
 <calculation>
  <scstep>
   <time name="dav">  213.43  214.13</time>
   <time name="total">  242.95  243.69</time>
   <energy>
    <i name="alphaZ">      6.18334092 </i>
    <i name="ewald">   2529.64064637 </i>
    <i name="hartreedc">  -3023.72812369 </i>
    <i name="XCdc">     57.36546141 </i>
    <i name="pawpsdc">    273.63809966 </i>
    <i name="pawaedc">   -278.77132076 </i>
    <i name="eentropy">     -0.00002678 </i>
    <i name="bandstr">   -189.86554436 </i>
    <i name="atom">    588.62352690 </i>
    <i name="e_fr_energy">    -36.91394031 </i>
    <i name="e_wo_entrp">    -36.91391353 </i>
    <i name="e_0_energy">    -36.91392692 </i>
   </energy>
  </scstep>
  <scstep>
   <time name="diag">   70.05   71.48</time>
   <time name="diis">  146.41  146.58</time>
   <time name="orth">    2.78    3.28</time>
   <time name="total">  247.99  250.16</time>
   <energy>
    <i name="e_fr_energy">    -36.91394031 </i>
    <i name="e_wo_entrp">    -36.91391353 </i>
    <i name="e_0_energy">    -36.91392692 </i>
   </energy>
  </scstep>
  <scstep>
   <time name="diag">   70.44   71.52</time>
   <time name="diis">  150.86  151.05</time>
   <time name="orth">    2.41    2.84</time>
   <time name="total">  251.42  253.89</time>
   <energy>
    <i name="e_fr_energy">    -36.91394031 </i>
    <i name="e_wo_entrp">    -36.91391353 </i>
    <i name="e_0_energy">    -36.91392692 </i>
   </energy>
  </scstep>
  <scstep>
   <time name="diag">   69.50   71.51</time>
   <time name="diis">  149.68  149.77</time>
   <time name="orth">    3.08    3.53</time>
   <time name="total">  249.14  251.72</time>
   <energy>
    <i name="e_fr_energy">    -36.91394031 </i>
    <i name="e_wo_entrp">    -36.91391353 </i>
    <i name="e_0_energy">    -36.91392692 </i>
   </energy>
  </scstep>
  <scstep>
   <time name="diag">   71.26   71.82</time>
   <time name="diis">  150.00  150.11</time>
   <time name="orth">    2.94    3.34</time>
   <time name="total">  226.19  227.29</time>
   <energy>
    <i name="alphaZ">      6.18334092 </i>
    <i name="ewald">   2529.64064637 </i>
    <i name="hartreedc">  -3023.72812393 </i>
    <i name="XCdc">     57.36546138 </i>
    <i name="pawpsdc">    273.63809743 </i>
    <i name="pawaedc">   -278.77131851 </i>
    <i name="eentropy">     -0.00002678 </i>
    <i name="bandstr">   -189.86554410 </i>
    <i name="atom">    588.62352690 </i>
    <i name="e_fr_energy">    -36.91394031 </i>
    <i name="e_wo_entrp">    -36.91391353 </i>
    <i name="e_0_energy">    -36.91392692 </i>
   </energy>
  </scstep>
  <structure>
   <crystal>
    <varray name="basis" >
     <v>       4.26543127       0.00000000       0.00000000 </v>
     <v>       0.00000000       2.49259035       0.00000000 </v>
     <v>       0.00000000       0.00000000      19.83055311 </v>
    </varray>
    <i name="volume">    210.83790140 </i>
    <varray name="rec_basis" >
     <v>       0.23444288       0.00000000       0.00000000 </v>
     <v>       0.00000000       0.40118907       0.00000000 </v>
     <v>       0.00000000       0.00000000       0.05042724 </v>
    </varray>
   </crystal>
   <varray name="positions" >
    <v>       0.00026837      -0.00000000      -0.00000000 </v>
    <v>       0.16639830       0.50000000       0.00000000 </v>
    <v>       0.50026837       0.50000000      -0.00000000 </v>
    <v>       0.66639830       0.00000000       0.00000000 </v>
   </varray>
  </structure>
  <varray name="forces" >
   <v>       0.00000136       0.00000000       0.00000000 </v>
   <v>      -0.00000136      -0.00000000      -0.00000000 </v>
   <v>       0.00000136      -0.00000000       0.00000000 </v>
   <v>      -0.00000136       0.00000000      -0.00000000 </v>
  </varray>
  <varray name="stress" >
   <v>       0.00631284       0.00000000       0.00000000 </v>
   <v>       0.00000000     -17.12552308       0.00000000 </v>
   <v>       0.00000000       0.00000000      -0.01018772 </v>
  </varray>
  <energy>
   <i name="e_fr_energy">    -36.91394031 </i>
   <i name="e_wo_entrp">    -36.91392692 </i>
   <i name="e_0_energy">     -0.00002678 </i>
  </energy>
  <time name="totalsc"> 1312.38 1322.00</time>
 </calculation>
 <calculation>
  <scstep>
   <time name="dav">  220.37  221.02</time>
   <time name="total">  248.01  248.73</time>
   <energy>
    <i name="alphaZ">      6.18334092 </i>
    <i name="ewald">   2529.64064631 </i>
    <i name="hartreedc">  -3023.72812405 </i>
    <i name="XCdc">     57.36546138 </i>
    <i name="pawpsdc">    273.63809747 </i>
    <i name="pawaedc">   -278.77131855 </i>
    <i name="eentropy">     -0.00002678 </i>
    <i name="bandstr">   -189.86554391 </i>
    <i name="atom">    588.62352690 </i>
    <i name="e_fr_energy">    -36.91394031 </i>
    <i name="e_wo_entrp">    -36.91391353 </i>
    <i name="e_0_energy">    -36.91392692 </i>
   </energy>
  </scstep>
  <scstep>
   <time name="diag">   68.47   70.55</time>
   <time name="diis">  137.02  137.04</time>
   <time name="orth">    3.21    3.60</time>
   <time name="total">  239.13  241.66</time>
   <energy>
    <i name="e_fr_energy">    -36.91394031 </i>
    <i name="e_wo_entrp">    -36.91391353 </i>
    <i name="e_0_energy">    -36.91392692 </i>
   </energy>
  </scstep>
  <scstep>
   <time name="diag">   67.84   70.56</time>
   <time name="diis">  137.12  137.22</time>
   <time name="orth">    2.58    3.07</time>
   <time name="total">  236.15  239.60</time>
   <energy>
    <i name="e_fr_energy">    -36.91394031 </i>
    <i name="e_wo_entrp">    -36.91391353 </i>
    <i name="e_0_energy">    -36.91392692 </i>
   </energy>
  </scstep>
  <scstep>
   <time name="diag">   70.85   71.45</time>
   <time name="diis">  138.20  138.50</time>
   <time name="orth">    3.07    3.47</time>
   <time name="total">  238.91  240.27</time>
   <energy>
    <i name="e_fr_energy">    -36.91394031 </i>
    <i name="e_wo_entrp">    -36.91391353 </i>
    <i name="e_0_energy">    -36.91392692 </i>
   </energy>
  </scstep>
  <scstep>
   <time name="diag">   69.86   70.36</time>
   <time name="diis">  139.06  139.24</time>
   <time name="orth">    3.15    3.51</time>
   <time name="total">  213.90  214.99</time>
   <energy>
    <i name="alphaZ">      6.18334092 </i>
    <i name="ewald">   2529.64064631 </i>
    <i name="hartreedc">  -3023.72812443 </i>
    <i name="XCdc">     57.36546139 </i>
    <i name="pawpsdc">    273.63809742 </i>
    <i name="pawaedc">   -278.77131850 </i>
    <i name="eentropy">     -0.00002678 </i>
    <i name="bandstr">   -189.86554354 </i>
    <i name="atom">    588.62352690 </i>
    <i name="e_fr_energy">    -36.91394031 </i>
    <i name="e_wo_entrp">    -36.91391353 </i>
    <i name="e_0_energy">    -36.91392692 </i>
   </energy>
  </scstep>
  <structure>
   <crystal>
    <varray name="basis" >
     <v>       4.26543127       0.00000000       0.00000000 </v>
     <v>       0.00000000       2.49259035       0.00000000 </v>
     <v>       0.00000000       0.00000000      19.83055311 </v>
    </varray>
    <i name="volume">    210.83790140 </i>
    <varray name="rec_basis" >
     <v>       0.23444288       0.00000000       0.00000000 </v>
     <v>       0.00000000       0.40118907       0.00000000 </v>
     <v>       0.00000000       0.00000000       0.05042724 </v>
    </varray>
   </crystal>
   <varray name="positions" >
    <v>       0.00026837      -0.00000000       0.00000000 </v>
    <v>       0.16639829       0.50000000      -0.00000000 </v>
    <v>       0.50026837       0.50000000       0.00000000 </v>
    <v>       0.66639829       0.00000000      -0.00000000 </v>
   </varray>
  </structure>
  <varray name="forces" >
   <v>       0.00000114       0.00000000      -0.00000000 </v>
   <v>      -0.00000114      -0.00000000       0.00000000 </v>
   <v>       0.00000114       0.00000000      -0.00000000 </v>
   <v>      -0.00000114      -0.00000000       0.00000000 </v>
  </varray>
  <varray name="stress" >
   <v>       0.00631305       0.00000000       0.00000000 </v>
   <v>       0.00000000     -17.12552572       0.00000000 </v>
   <v>       0.00000000       0.00000000      -0.01018678 </v>
  </varray>
  <energy>
   <i name="e_fr_energy">    -36.91394031 </i>
   <i name="e_wo_entrp">    -36.91392692 </i>
   <i name="e_0_energy">     -0.00002678 </i>
  </energy>
  <time name="totalsc"> 1273.31 1282.97</time>
 </calculation>
 <calculation>
  <scstep>
   <time name="dav">  221.18  221.77</time>
   <time name="total">  251.15  251.80</time>
   <energy>
    <i name="alphaZ">      6.18334092 </i>
    <i name="ewald">   2529.64064598 </i>
    <i name="hartreedc">  -3023.72812437 </i>
    <i name="XCdc">     57.36546138 </i>
    <i name="pawpsdc">    273.63809742 </i>
    <i name="pawaedc">   -278.77131849 </i>
    <i name="eentropy">     -0.00002678 </i>
    <i name="bandstr">   -189.86554326 </i>
    <i name="atom">    588.62352690 </i>
    <i name="e_fr_energy">    -36.91394031 </i>
    <i name="e_wo_entrp">    -36.91391353 </i>
    <i name="e_0_energy">    -36.91392692 </i>
   </energy>
  </scstep>
  <scstep>
   <time name="diag">   69.97   70.62</time>
   <time name="diis">  121.66  121.83</time>
   <time name="orth">    2.58    3.13</time>
   <time name="total">  220.86  222.29</time>
   <energy>
    <i name="e_fr_energy">    -36.91394031 </i>
    <i name="e_wo_entrp">    -36.91391353 </i>
    <i name="e_0_energy">    -36.91392692 </i>
   </energy>
  </scstep>
  <scstep>
   <time name="diag">   69.15   71.80</time>
   <time name="diis">  127.01  127.09</time>
   <time name="orth">    3.47    3.77</time>
   <time name="total">  229.30  232.55</time>
   <energy>
    <i name="e_fr_energy">    -36.91394031 </i>
    <i name="e_wo_entrp">    -36.91391353 </i>
    <i name="e_0_energy">    -36.91392692 </i>
   </energy>
  </scstep>
  <scstep>
   <time name="diag">   68.22   70.55</time>
   <time name="diis">  110.90  110.92</time>
   <time name="orth">    3.20    3.49</time>
   <time name="total">  209.82  212.51</time>
   <energy>
    <i name="e_fr_energy">    -36.91394031 </i>
    <i name="e_wo_entrp">    -36.91391353 </i>
    <i name="e_0_energy">    -36.91392692 </i>
   </energy>
  </scstep>
  <scstep>
   <time name="diag">   68.62   70.49</time>
   <time name="diis">  125.84  126.19</time>
   <time name="orth">    2.85    3.18</time>
   <time name="total">  227.05  229.85</time>
   <energy>
    <i name="e_fr_energy">    -36.91394031 </i>
    <i name="e_wo_entrp">    -36.91391353 </i>
    <i name="e_0_energy">    -36.91392692 </i>
   </energy>
  </scstep>
  <scstep>
   <time name="diag">   69.90   71.50</time>
   <time name="diis">  129.49  131.10</time>
   <time name="orth">    2.85    3.37</time>
   <time name="total">  204.32  208.06</time>
   <energy>
    <i name="alphaZ">      6.18334092 </i>
    <i name="ewald">   2529.64064598 </i>
    <i name="hartreedc">  -3023.72812408 </i>
    <i name="XCdc">     57.36546137 </i>
    <i name="pawpsdc">    273.63809645 </i>
    <i name="pawaedc">   -278.77131752 </i>
    <i name="eentropy">     -0.00002678 </i>
    <i name="bandstr">   -189.86554355 </i>
    <i name="atom">    588.62352690 </i>
    <i name="e_fr_energy">    -36.91394031 </i>
    <i name="e_wo_entrp">    -36.91391353 </i>
    <i name="e_0_energy">    -36.91392692 </i>
   </energy>
  </scstep>
  <structure>
   <crystal>
    <varray name="basis" >
     <v>       4.26543127       0.00000000       0.00000000 </v>
     <v>       0.00000000       2.49259035       0.00000000 </v>
     <v>       0.00000000       0.00000000      19.83055311 </v>
    </varray>
    <i name="volume">    210.83790140 </i>
    <varray name="rec_basis" >
     <v>       0.23444288       0.00000000       0.00000000 </v>
     <v>       0.00000000       0.40118907       0.00000000 </v>
     <v>       0.00000000       0.00000000       0.05042724 </v>
    </varray>
   </crystal>
   <varray name="positions" >
    <v>       0.00026838       0.00000000      -0.00000000 </v>
    <v>       0.16639829       0.50000000       0.00000000 </v>
    <v>       0.50026838       0.50000000      -0.00000000 </v>
    <v>       0.66639829      -0.00000000       0.00000000 </v>
   </varray>
  </structure>
  <varray name="forces" >
   <v>      -0.00000202      -0.00000000       0.00000000 </v>
   <v>       0.00000202       0.00000000      -0.00000000 </v>
   <v>      -0.00000202      -0.00000000       0.00000000 </v>
   <v>       0.00000202       0.00000000      -0.00000000 </v>
  </varray>
  <varray name="stress" >
   <v>       0.00630588       0.00000000       0.00000000 </v>
   <v>       0.00000000     -17.12551939       0.00000000 </v>
   <v>       0.00000000       0.00000000      -0.01018865 </v>
  </varray>
  <energy>
   <i name="e_fr_energy">    -36.91394031 </i>
   <i name="e_wo_entrp">    -36.91392692 </i>
   <i name="e_0_energy">     -0.00002678 </i>
  </energy>
  <time name="totalsc"> 1433.34 1448.92</time>
 </calculation>
 <calculation>
  <scstep>
   <time name="dav">  225.25  226.54</time>
   <time name="total">  252.49  253.85</time>
   <energy>
    <i name="alphaZ">      6.18334092 </i>
    <i name="ewald">   2529.64064619 </i>
    <i name="hartreedc">  -3023.72812416 </i>
    <i name="XCdc">     57.36546137 </i>
    <i name="pawpsdc">    273.63809645 </i>
    <i name="pawaedc">   -278.77131752 </i>
    <i name="eentropy">     -0.00002678 </i>
    <i name="bandstr">   -189.86554368 </i>
    <i name="atom">    588.62352690 </i>
    <i name="e_fr_energy">    -36.91394031 </i>
    <i name="e_wo_entrp">    -36.91391353 </i>
    <i name="e_0_energy">    -36.91392692 </i>
   </energy>
  </scstep>
  <scstep>
   <time name="diag">   69.49   70.44</time>
   <time name="diis">  106.12  106.40</time>
   <time name="orth">    2.60    3.08</time>
   <time name="total">  204.88  206.72</time>
   <energy>
    <i name="e_fr_energy">    -36.91394031 </i>
    <i name="e_wo_entrp">    -36.91391353 </i>
    <i name="e_0_energy">    -36.91392692 </i>
   </energy>
  </scstep>
  <scstep>
   <time name="diag">   70.48   71.16</time>
   <time name="diis">  110.62  110.92</time>
   <time name="orth">    2.53    2.87</time>
   <time name="total">  213.52  214.98</time>
   <energy>
    <i name="e_fr_energy">    -36.91394031 </i>
    <i name="e_wo_entrp">    -36.91391353 </i>
    <i name="e_0_energy">    -36.91392692 </i>
   </energy>
  </scstep>
  <scstep>
   <time name="diag">   71.06   71.51</time>
   <time name="diis">   99.13   99.23</time>
   <time name="orth">    3.04    3.32</time>
   <time name="total">  201.57  202.44</time>
   <energy>
    <i name="e_fr_energy">    -36.91394031 </i>
    <i name="e_wo_entrp">    -36.91391353 </i>
    <i name="e_0_energy">    -36.91392692 </i>
   </energy>
  </scstep>
  <scstep>
   <time name="diag">   63.44   63.89</time>
   <time name="diis">   88.00   88.28</time>
   <time name="orth">    2.64    2.96</time>
   <time name="total">  182.54  183.63</time>
   <energy>
    <i name="e_fr_energy">    -36.91394031 </i>
    <i name="e_wo_entrp">    -36.91391353 </i>
    <i name="e_0_energy">    -36.91392692 </i>
   </energy>
  </scstep>
  <scstep>
   <time name="diag">   62.70   63.24</time>
   <time name="diis">   91.02   91.09</time>
   <time name="orth">    2.65    2.97</time>
   <time name="total">  158.56  159.50</time>
   <energy>
    <i name="alphaZ">      6.18334092 </i>
    <i name="ewald">   2529.64064619 </i>
    <i name="hartreedc">  -3023.72812444 </i>
    <i name="XCdc">     57.36546138 </i>
    <i name="pawpsdc">    273.63809763 </i>
    <i name="pawaedc">   -278.77131871 </i>
    <i name="eentropy">     -0.00002678 </i>
    <i name="bandstr">   -189.86554341 </i>
    <i name="atom">    588.62352690 </i>
    <i name="e_fr_energy">    -36.91394031 </i>
    <i name="e_wo_entrp">    -36.91391353 </i>
    <i name="e_0_energy">    -36.91392692 </i>
   </energy>
  </scstep>
  <structure>
   <crystal>
    <varray name="basis" >
     <v>       4.26543127       0.00000000       0.00000000 </v>
     <v>       0.00000000       2.49259035       0.00000000 </v>
     <v>       0.00000000       0.00000000      19.83055311 </v>
    </varray>
    <i name="volume">    210.83790140 </i>
    <varray name="rec_basis" >
     <v>       0.23444288       0.00000000       0.00000000 </v>
     <v>       0.00000000       0.40118907       0.00000000 </v>
     <v>       0.00000000       0.00000000       0.05042724 </v>
    </varray>
   </crystal>
   <varray name="positions" >
    <v>       0.00026838       0.00000000      -0.00000000 </v>
    <v>       0.16639829       0.50000000       0.00000000 </v>
    <v>       0.50026838       0.50000000      -0.00000000 </v>
    <v>       0.66639829       0.00000000       0.00000000 </v>
   </varray>
  </structure>
  <varray name="forces" >
   <v>       0.00000153       0.00000000       0.00000000 </v>
[...]
       <r>   -9.1233    1.0000 </r>
       <r>   -5.6246    1.0000 </r>
       <r>   -5.6246    1.0000 </r>
       <r>   -0.4854    0.0000 </r>
       <r>   -0.4854    0.0000 </r>
       <r>    4.8292    0.0000 </r>
       <r>    4.8292    0.0000 </r>
      </set>
      <set comment="kpoint 209">
       <r>  -18.8404    1.0000 </r>
       <r>  -17.0928    1.0000 </r>
       <r>  -13.9714    1.0000 </r>
       <r>  -12.3759    1.0000 </r>
       <r>  -12.3739    1.0000 </r>
       <r>  -10.8718    1.0000 </r>
       <r>   -6.4534    1.0000 </r>
       <r>   -4.6003    1.0000 </r>
       <r>   -0.9897    0.0000 </r>
       <r>    1.1307    0.0000 </r>
       <r>    5.1581    0.0000 </r>
       <r>    5.9469    0.0000 </r>
      </set>
      <set comment="kpoint 210">
       <r>  -18.8306    1.0000 </r>
       <r>  -17.0852    1.0000 </r>
       <r>  -14.0603    1.0000 </r>
       <r>  -12.4566    1.0000 </r>
       <r>  -12.2789    1.0000 </r>
       <r>  -10.7910    1.0000 </r>
       <r>   -6.4446    1.0000 </r>
       <r>   -4.6028    1.0000 </r>
       <r>   -1.0000    0.0000 </r>
       <r>    1.1049    0.0000 </r>
       <r>    5.1717    0.0000 </r>
       <r>    5.9631    0.0000 </r>
      </set>
      <set comment="kpoint 211">
       <r>  -18.8014    1.0000 </r>
       <r>  -17.0626    1.0000 </r>
       <r>  -14.2796    1.0000 </r>
       <r>  -12.6645    1.0000 </r>
       <r>  -12.0355    1.0000 </r>
       <r>  -10.5897    1.0000 </r>
       <r>   -6.4182    1.0000 </r>
       <r>   -4.6110    1.0000 </r>
       <r>   -1.0291    0.0000 </r>
       <r>    1.0295    0.0000 </r>
       <r>    5.2126    0.0000 </r>
       <r>    6.0111    0.0000 </r>
      </set>
      <set comment="kpoint 212">
       <r>  -18.7529    1.0000 </r>
       <r>  -17.0264    1.0000 </r>
       <r>  -14.5577    1.0000 </r>
       <r>  -12.9355    1.0000 </r>
       <r>  -11.7174    1.0000 </r>
       <r>  -10.3321    1.0000 </r>
       <r>   -6.3746    1.0000 </r>
       <r>   -4.6263    1.0000 </r>
       <r>   -1.0717    0.0000 </r>
       <r>    0.9099    0.0000 </r>
       <r>    5.2804    0.0000 </r>
       <r>    6.0898    0.0000 </r>
      </set>
      <set comment="kpoint 213">
       <r>  -18.6851    1.0000 </r>
       <r>  -16.9792    1.0000 </r>
       <r>  -14.8521    1.0000 </r>
       <r>  -13.2325    1.0000 </r>
       <r>  -11.3666    1.0000 </r>
       <r>  -10.0584    1.0000 </r>
       <r>   -6.3142    1.0000 </r>
       <r>   -4.6510    1.0000 </r>
       <r>   -1.1201    0.0000 </r>
       <r>    0.7539    0.0000 </r>
       <r>    5.3742    0.0000 </r>
       <r>    6.1981    0.0000 </r>
      </set>
      <set comment="kpoint 214">
       <r>  -18.5984    1.0000 </r>
       <r>  -16.9261    1.0000 </r>
       <r>  -15.1392    1.0000 </r>
       <r>  -13.5374    1.0000 </r>
       <r>  -11.0052    1.0000 </r>
       <r>   -9.7916    1.0000 </r>
       <r>   -6.2379    1.0000 </r>
       <r>   -4.6880    1.0000 </r>
       <r>   -1.1649    0.0000 </r>
       <r>    0.5703    0.0000 </r>
       <r>    5.4897    0.0000 </r>
       <r>    6.1788    0.0000 </r>
      </set>
      <set comment="kpoint 215">
       <r>  -18.4930    1.0000 </r>
       <r>  -16.8772    1.0000 </r>
       <r>  -15.3997    1.0000 </r>
       <r>  -13.8406    1.0000 </r>
       <r>  -10.6467    1.0000 </r>
       <r>   -9.5469    1.0000 </r>
       <r>   -6.1465    1.0000 </r>
       <r>   -4.7400    1.0000 </r>
       <r>   -1.1970    0.0000 </r>
       <r>    0.3682    0.0000 </r>
       <r>    5.5715    0.0000 </r>
       <r>    5.8029    0.0000 </r>
      </set>
      <set comment="kpoint 216">
       <r>  -18.3695    1.0000 </r>
       <r>  -16.8512    1.0000 </r>
       <r>  -15.6100    1.0000 </r>
       <r>  -14.1364    1.0000 </r>
       <r>  -10.3016    1.0000 </r>
       <r>   -9.3365    1.0000 </r>
       <r>   -6.0415    1.0000 </r>
       <r>   -4.8090    1.0000 </r>
       <r>   -1.2081    0.0000 </r>
       <r>    0.1559    0.0000 </r>
       <r>    5.3082    0.0000 </r>
       <r>    5.8639    0.0000 </r>
      </set>
      <set comment="kpoint 217">
       <r>  -18.2284    1.0000 </r>
       <r>  -16.8768    1.0000 </r>
       <r>  -15.7385    1.0000 </r>
       <r>  -14.4209    1.0000 </r>
       <r>   -9.9793    1.0000 </r>
       <r>   -9.1710    1.0000 </r>
       <r>   -5.9246    1.0000 </r>
       <r>   -4.8959    1.0000 </r>
       <r>   -1.1919    0.0000 </r>
       <r>   -0.0589    0.0000 </r>
       <r>    5.0139    0.0000 </r>
       <r>    5.8388    0.0000 </r>
      </set>
      <set comment="kpoint 218">
       <r>  -18.0707    1.0000 </r>
       <r>  -16.9740    1.0000 </r>
       <r>  -15.7633    1.0000 </r>
       <r>  -14.6912    1.0000 </r>
       <r>   -9.6891    1.0000 </r>
       <r>   -9.0591    1.0000 </r>
       <r>   -5.7976    1.0000 </r>
       <r>   -4.9997    1.0000 </r>
       <r>   -1.1449    0.0000 </r>
       <r>   -0.2693    0.0000 </r>
       <r>    4.7968    0.0000 </r>
       <r>    5.4402    0.0000 </r>
      </set>
      <set comment="kpoint 219">
       <r>  -17.8979    1.0000 </r>
       <r>  -17.1310    1.0000 </r>
       <r>  -15.6951    1.0000 </r>
       <r>  -14.9442    1.0000 </r>
       <r>   -9.4402    1.0000 </r>
       <r>   -9.0078    1.0000 </r>
       <r>   -5.6633    1.0000 </r>
       <r>   -5.1182    1.0000 </r>
       <r>   -1.0659    0.0000 </r>
       <r>   -0.4694    0.0000 </r>
       <r>    4.6700    0.0000 </r>
       <r>    5.1121    0.0000 </r>
      </set>
      <set comment="kpoint 220">
       <r>  -17.7121    1.0000 </r>
       <r>  -17.3192    1.0000 </r>
       <r>  -15.5620    1.0000 </r>
       <r>  -15.1770    1.0000 </r>
       <r>   -9.2413    1.0000 </r>
       <r>   -9.0211    1.0000 </r>
       <r>   -5.5244    1.0000 </r>
       <r>   -5.2479    1.0000 </r>
       <r>   -0.9558    0.0000 </r>
       <r>   -0.6536    0.0000 </r>
       <r>    4.6388    0.0000 </r>
       <r>    4.8641    0.0000 </r>
      </set>
      <set comment="kpoint 221">
       <r>  -17.5170    1.0000 </r>
       <r>  -17.5170    1.0000 </r>
       <r>  -15.3852    1.0000 </r>
       <r>  -15.3852    1.0000 </r>
       <r>   -9.0998    1.0000 </r>
       <r>   -9.0998    1.0000 </r>
       <r>   -5.3847    1.0000 </r>
       <r>   -5.3847    1.0000 </r>
       <r>   -0.8172    0.0000 </r>
       <r>   -0.8172    0.0000 </r>
       <r>    4.7044    0.0000 </r>
       <r>    4.7044    0.0000 </r>
      </set>
      <set comment="kpoint 222">
       <r>  -18.4273    1.0000 </r>
       <r>  -17.5498    1.0000 </r>
       <r>  -13.6015    1.0000 </r>
       <r>  -12.8020    1.0000 </r>
       <r>  -12.0334    1.0000 </r>
       <r>  -11.2767    1.0000 </r>
       <r>   -6.0028    1.0000 </r>
       <r>   -5.0712    1.0000 </r>
       <r>   -0.4923    0.0000 </r>
       <r>    0.5699    0.0000 </r>
       <r>    5.7452    0.0000 </r>
       <r>    6.4995    0.0000 </r>
      </set>
      <set comment="kpoint 223">
       <r>  -18.4177    1.0000 </r>
       <r>  -17.5411    1.0000 </r>
       <r>  -13.6907    1.0000 </r>
       <r>  -12.8875    1.0000 </r>
       <r>  -11.9389    1.0000 </r>
       <r>  -11.1906    1.0000 </r>
       <r>   -5.9953    1.0000 </r>
       <r>   -5.0686    1.0000 </r>
       <r>   -0.5091    0.0000 </r>
       <r>    0.5462    0.0000 </r>
       <r>    5.7588    0.0000 </r>
       <r>    6.5165    0.0000 </r>
      </set>
      <set comment="kpoint 224">
       <r>  -18.3891    1.0000 </r>
       <r>  -17.5150    1.0000 </r>
       <r>  -13.9113    1.0000 </r>
       <r>  -13.1011    1.0000 </r>
       <r>  -11.7026    1.0000 </r>
       <r>  -10.9759    1.0000 </r>
       <r>   -5.9729    1.0000 </r>
       <r>   -5.0614    1.0000 </r>
       <r>   -0.5574    0.0000 </r>
       <r>    0.4769    0.0000 </r>
       <r>    5.7995    0.0000 </r>
       <r>    6.5669    0.0000 </r>
      </set>
      <set comment="kpoint 225">
       <r>  -18.3415    1.0000 </r>
       <r>  -17.4722    1.0000 </r>
       <r>  -14.1933    1.0000 </r>
       <r>  -13.3776    1.0000 </r>
       <r>  -11.3957    1.0000 </r>
       <r>  -10.6996    1.0000 </r>
       <r>   -5.9360    1.0000 </r>
       <r>   -5.0507    1.0000 </r>
       <r>   -0.6320    0.0000 </r>
       <r>    0.3673    0.0000 </r>
       <r>    5.8668    0.0000 </r>
       <r>    6.6493    0.0000 </r>
      </set>
      <set comment="kpoint 226">
       <r>  -18.2753    1.0000 </r>
       <r>  -17.4135    1.0000 </r>
       <r>  -14.4965    1.0000 </r>
       <r>  -13.6790    1.0000 </r>
       <r>  -11.0600    1.0000 </r>
       <r>  -10.4026    1.0000 </r>
       <r>   -5.8855    1.0000 </r>
       <r>   -5.0382    1.0000 </r>
       <r>   -0.7250    0.0000 </r>
       <r>    0.2252    0.0000 </r>
       <r>    5.9588    0.0000 </r>
       <r>    6.7618    0.0000 </r>
      </set>
      <set comment="kpoint 227">
       <r>  -18.1907    1.0000 </r>
       <r>  -17.3406    1.0000 </r>
       <r>  -14.8007    1.0000 </r>
       <r>  -13.9868    1.0000 </r>
       <r>  -10.7177    1.0000 </r>
       <r>  -10.1077    1.0000 </r>
       <r>   -5.8225    1.0000 </r>
       <r>   -5.0266    1.0000 </r>
       <r>   -0.8268    0.0000 </r>
       <r>    0.0596    0.0000 </r>
       <r>    6.0620    0.0000 </r>
       <r>    6.4531    0.0000 </r>
      </set>
      <set comment="kpoint 228">
       <r>  -18.0883    1.0000 </r>
       <r>  -17.2566    1.0000 </r>
       <r>  -15.0938    1.0000 </r>
       <r>  -14.2912    1.0000 </r>
       <r>  -10.3826    1.0000 </r>
       <r>   -9.8296    1.0000 </r>
       <r>   -5.7485    1.0000 </r>
       <r>   -5.0189    1.0000 </r>
       <r>   -0.9273    0.0000 </r>
       <r>   -0.1203    0.0000 </r>
       <r>    5.9054    0.0000 </r>
       <r>    6.2817    0.0000 </r>
      </set>
      <set comment="kpoint 229">
       <r>  -17.9690    1.0000 </r>
       <r>  -17.1671    1.0000 </r>
       <r>  -15.3654    1.0000 </r>
       <r>  -14.5864    1.0000 </r>
       <r>  -10.0659    1.0000 </r>
       <r>   -9.5803    1.0000 </r>
       <r>   -5.6656    1.0000 </r>
       <r>   -5.0187    1.0000 </r>
       <r>   -1.0164    0.0000 </r>
       <r>   -0.3054    0.0000 </r>
       <r>    5.5063    0.0000 </r>
       <r>    6.0005    0.0000 </r>
      </set>
      <set comment="kpoint 230">
       <r>  -17.8341    1.0000 </r>
       <r>  -17.0826    1.0000 </r>
       <r>  -15.6019    1.0000 </r>
       <r>  -14.8679    1.0000 </r>
       <r>   -9.7772    1.0000 </r>
       <r>   -9.3702    1.0000 </r>
       <r>   -5.5761    1.0000 </r>
       <r>   -5.0295    1.0000 </r>
       <r>   -1.0848    0.0000 </r>
       <r>   -0.4873    0.0000 </r>
       <r>    5.1600    0.0000 </r>
       <r>    5.5742    0.0000 </r>
      </set>
      <set comment="kpoint 231">
       <r>  -17.6856    1.0000 </r>
       <r>  -17.0230    1.0000 </r>
       <r>  -15.7816    1.0000 </r>
       <r>  -15.1316    1.0000 </r>
       <r>   -9.5263    1.0000 </r>
       <r>   -9.2088    1.0000 </r>
       <r>   -5.4832    1.0000 </r>
       <r>   -5.0540    1.0000 </r>
       <r>   -1.1253    0.0000 </r>
       <r>   -0.6582    0.0000 </r>
       <r>    4.8906    0.0000 </r>
       <r>    5.2142    0.0000 </r>
      </set>
      <set comment="kpoint 232">
       <r>  -17.5270    1.0000 </r>
       <r>  -17.0174    1.0000 </r>
       <r>  -15.8742    1.0000 </r>
       <r>  -15.3728    1.0000 </r>
       <r>   -9.3222    1.0000 </r>
       <r>   -9.1042    1.0000 </r>
       <r>   -5.3902    1.0000 </r>
       <r>   -5.0941    1.0000 </r>
       <r>   -1.1324    0.0000 </r>
       <r>   -0.8111    0.0000 </r>
       <r>    4.7084    0.0000 </r>
       <r>    4.9309    0.0000 </r>
      </set>
      <set comment="kpoint 233">
       <r>  -17.3645    1.0000 </r>
       <r>  -17.0845    1.0000 </r>
       <r>  -15.8604    1.0000 </r>
       <r>  -15.5843    1.0000 </r>
       <r>   -9.1731    1.0000 </r>
       <r>   -9.0620    1.0000 </r>
       <r>   -5.3011    1.0000 </r>
       <r>   -5.1498    1.0000 </r>
       <r>   -1.1034    0.0000 </r>
       <r>   -0.9396    0.0000 </r>
       <r>    4.6199    0.0000 </r>
       <r>    4.7334    0.0000 </r>
      </set>
      <set comment="kpoint 234">
       <r>  -17.2099    1.0000 </r>
       <r>  -17.2099    1.0000 </r>
       <r>  -15.7540    1.0000 </r>
       <r>  -15.7540    1.0000 </r>
       <r>   -9.0851    1.0000 </r>
       <r>   -9.0851    1.0000 </r>
       <r>   -5.2197    1.0000 </r>
       <r>   -5.2197    1.0000 </r>
       <r>   -1.0384    0.0000 </r>
       <r>   -1.0384    0.0000 </r>
       <r>    4.6284    0.0000 </r>
       <r>    4.6284    0.0000 </r>
      </set>
      <set comment="kpoint 235">
       <r>  -17.9961    1.0000 </r>
       <r>  -17.9961    1.0000 </r>
       <r>  -13.2115    1.0000 </r>
       <r>  -13.2115    1.0000 </r>
       <r>  -11.6653    1.0000 </r>
       <r>  -11.6653    1.0000 </r>
       <r>   -5.5405    1.0000 </r>
       <r>   -5.5405    1.0000 </r>
       <r>    0.0281    0.0000 </r>
       <r>    0.0281    0.0000 </r>
       <r>    6.3626    0.0000 </r>
       <r>    6.3626    0.0000 </r>
      </set>
      <set comment="kpoint 236">
       <r>  -17.9868    1.0000 </r>
       <r>  -17.9868    1.0000 </r>
       <r>  -13.2993    1.0000 </r>
       <r>  -13.2993    1.0000 </r>
       <r>  -11.5745    1.0000 </r>
       <r>  -11.5745    1.0000 </r>
       <r>   -5.5349    1.0000 </r>
       <r>   -5.5349    1.0000 </r>
       <r>    0.0073    0.0000 </r>
       <r>    0.0073    0.0000 </r>
       <r>    6.3762    0.0000 </r>
       <r>    6.3762    0.0000 </r>
      </set>
      <set comment="kpoint 237">
       <r>  -17.9591    1.0000 </r>
       <r>  -17.9591    1.0000 </r>
       <r>  -13.5174    1.0000 </r>
       <r>  -13.5174    1.0000 </r>
       <r>  -11.3481    1.0000 </r>
       <r>  -11.3481    1.0000 </r>
       <r>   -5.5185    1.0000 </r>
       <r>   -5.5185    1.0000 </r>
       <r>   -0.0535    0.0000 </r>
       <r>   -0.0535    0.0000 </r>
       <r>    6.4166    0.0000 </r>
       <r>    6.4166    0.0000 </r>
      </set>
      <set comment="kpoint 238">
       <r>  -17.9132    1.0000 </r>
       <r>  -17.9132    1.0000 </r>
       <r>  -13.7980    1.0000 </r>
       <r>  -13.7980    1.0000 </r>
       <r>  -11.0552    1.0000 </r>
       <r>  -11.0552    1.0000 </r>
       <r>   -5.4918    1.0000 </r>
       <r>   -5.4918    1.0000 </r>
       <r>   -0.1489    0.0000 </r>
       <r>   -0.1489    0.0000 </r>
       <r>    6.4831    0.0000 </r>
       <r>    6.4831    0.0000 </r>
      </set>
      <set comment="kpoint 239">
       <r>  -17.8495    1.0000 </r>
       <r>  -17.8495    1.0000 </r>
       <r>  -14.1019    1.0000 </r>
       <r>  -14.1019    1.0000 </r>
       <r>  -10.7376    1.0000 </r>
       <r>  -10.7376    1.0000 </r>
       <r>   -5.4561    1.0000 </r>
       <r>   -5.4561    1.0000 </r>
       <r>   -0.2712    0.0000 </r>
       <r>   -0.2712    0.0000 </r>
       <r>    6.5716    0.0000 </r>
       <r>    6.5716    0.0000 </r>
      </set>
      <set comment="kpoint 240">
       <r>  -17.7687    1.0000 </r>
       <r>  -17.7687    1.0000 </r>
       <r>  -14.4104    1.0000 </r>
       <r>  -14.4104    1.0000 </r>
       <r>  -10.4174    1.0000 </r>
       <r>  -10.4174    1.0000 </r>
       <r>   -5.4133    1.0000 </r>
       <r>   -5.4133    1.0000 </r>
       <r>   -0.4111    0.0000 </r>
       <r>   -0.4111    0.0000 </r>
       <r>    6.6039    0.0000 </r>
       <r>    6.6039    0.0000 </r>
      </set>
      <set comment="kpoint 241">
       <r>  -17.6720    1.0000 </r>
       <r>  -17.6720    1.0000 </r>
       <r>  -14.7130    1.0000 </r>
       <r>  -14.7130    1.0000 </r>
       <r>  -10.1092    1.0000 </r>
       <r>  -10.1092    1.0000 </r>
       <r>   -5.3655    1.0000 </r>
       <r>   -5.3655    1.0000 </r>
       <r>   -0.5588    0.0000 </r>
       <r>   -0.5588    0.0000 </r>
       <r>    6.1837    0.0000 </r>
       <r>    6.1837    0.0000 </r>
      </set>
      <set comment="kpoint 242">
       <r>  -17.5614    1.0000 </r>
       <r>  -17.5614    1.0000 </r>
       <r>  -15.0028    1.0000 </r>
       <r>  -15.0028    1.0000 </r>
       <r>   -9.8244    1.0000 </r>
       <r>   -9.8244    1.0000 </r>
       <r>   -5.3158    1.0000 </r>
       <r>   -5.3158    1.0000 </r>
       <r>   -0.7047    0.0000 </r>
       <r>   -0.7047    0.0000 </r>
       <r>    5.7364    0.0000 </r>
       <r>    5.7364    0.0000 </r>
      </set>
      <set comment="kpoint 243">
       <r>  -17.4399    1.0000 </r>
       <r>  -17.4399    1.0000 </r>
       <r>  -15.2737    1.0000 </r>
       <r>  -15.2737    1.0000 </r>
       <r>   -9.5732    1.0000 </r>
       <r>   -9.5732    1.0000 </r>
       <r>   -5.2675    1.0000 </r>
       <r>   -5.2675    1.0000 </r>
       <r>   -0.8393    0.0000 </r>
       <r>   -0.8393    0.0000 </r>
       <r>    5.3471    0.0000 </r>
       <r>    5.3471    0.0000 </r>
      </set>
      <set comment="kpoint 244">
       <r>  -17.3137    1.0000 </r>
       <r>  -17.3137    1.0000 </r>
       <r>  -15.5177    1.0000 </r>
       <r>  -15.5177    1.0000 </r>
       <r>   -9.3654    1.0000 </r>
       <r>   -9.3654    1.0000 </r>
       <r>   -5.2243    1.0000 </r>
       <r>   -5.2243    1.0000 </r>
       <r>   -0.9544    0.0000 </r>
       <r>   -0.9544    0.0000 </r>
       <r>    5.0302    0.0000 </r>
       <r>    5.0302    0.0000 </r>
      </set>
      <set comment="kpoint 245">
       <r>  -17.1938    1.0000 </r>
       <r>  -17.1938    1.0000 </r>
       <r>  -15.7225    1.0000 </r>
       <r>  -15.7225    1.0000 </r>
       <r>   -9.2095    1.0000 </r>
       <r>   -9.2095    1.0000 </r>
       <r>   -5.1900    1.0000 </r>
       <r>   -5.1900    1.0000 </r>
       <r>   -1.0426    0.0000 </r>
       <r>   -1.0426    0.0000 </r>
       <r>    4.7957    0.0000 </r>
       <r>    4.7957    0.0000 </r>
      </set>
      <set comment="kpoint 246">
       <r>  -17.1008    1.0000 </r>
       <r>  -17.1008    1.0000 </r>
       <r>  -15.8667    1.0000 </r>
       <r>  -15.8667    1.0000 </r>
       <r>   -9.1129    1.0000 </r>
       <r>   -9.1129    1.0000 </r>
       <r>   -5.1679    1.0000 </r>
       <r>   -5.1679    1.0000 </r>
       <r>   -1.0980    0.0000 </r>
       <r>   -1.0980    0.0000 </r>
       <r>    4.6516    0.0000 </r>
       <r>    4.6516    0.0000 </r>
      </set>
      <set comment="kpoint 247">
       <r>  -17.0643    1.0000 </r>
       <r>  -17.0643    1.0000 </r>
       <r>  -15.9204    1.0000 </r>
       <r>  -15.9204    1.0000 </r>
       <r>   -9.0801    1.0000 </r>
       <r>   -9.0801    1.0000 </r>
       <r>   -5.1602    1.0000 </r>
       <r>   -5.1602    1.0000 </r>
       <r>   -1.1169    0.0000 </r>
       <r>   -1.1169    0.0000 </r>
       <r>    4.6030    0.0000 </r>
       <r>    4.6030    0.0000 </r>
      </set>
     </set>
    </set>
   </array>
  </eigenvalues>
  <separator name="orbital magnetization" >
   <v name="MAGDIPOLOUT">      0.00000000      0.00000000      0.00000000</v>
  </separator>
 </calculation>
 <structure name="finalpos" >
  <crystal>
   <varray name="basis" >
    <v>       4.26543127       0.00000000       0.00000000 </v>
    <v>       0.00000000       2.49259035       0.00000000 </v>
    <v>       0.00000000       0.00000000      19.83055311 </v>
   </varray>
   <i name="volume">    210.83790140 </i>
   <varray name="rec_basis" >
    <v>       0.23444288       0.00000000       0.00000000 </v>
    <v>       0.00000000       0.40118907       0.00000000 </v>
    <v>       0.00000000       0.00000000       0.05042724 </v>
   </varray>
  </crystal>
  <varray name="positions" >
   <v>       0.00026838       0.00000000      -0.00000000 </v>
   <v>       0.16639829       0.50000000       0.00000000 </v>
   <v>       0.50026838       0.50000000      -0.00000000 </v>
   <v>       0.66639829       0.00000000       0.00000000 </v>
  </varray>
 </structure>
</modeling>
