gr                                      
           1
     4.265431    0.000000    0.000000
     0.000000    2.492590    0.000000
     0.000000    0.000000   19.830553
   C 
   4
Direct configuration=     1
   0.00026297  0.00000000  0.00000000
   0.16640370  0.50000000  0.00000000
   0.50026297  0.50000000  0.00000000
   0.66640370  0.00000000  0.00000000
Direct configuration=     2
   0.00029046  0.00000000  0.00000000
   0.16637620  0.50000000  0.00000000
   0.50029046  0.50000000  0.00000000
   0.66637620  0.00000000  0.00000000
Direct configuration=     3
   0.00026838  0.00000000 -0.00000000
   0.16639828  0.50000000  0.00000000
   0.50026838  0.50000000 -0.00000000
   0.66639828  0.00000000  0.00000000
Direct configuration=     4
   0.00026836 -0.00000000 -0.00000000
   0.16639831  0.50000000  0.00000000
   0.50026836  0.50000000 -0.00000000
   0.66639831  0.00000000  0.00000000
Direct configuration=     5
   0.00026837 -0.00000000 -0.00000000
   0.16639830  0.50000000  0.00000000
   0.50026837  0.50000000 -0.00000000
   0.66639830  0.00000000  0.00000000
Direct configuration=     6
   0.00026837 -0.00000000  0.00000000
   0.16639829  0.50000000 -0.00000000
   0.50026837  0.50000000  0.00000000
   0.66639829  0.00000000 -0.00000000
Direct configuration=     7
   0.00026838  0.00000000 -0.00000000
   0.16639829  0.50000000  0.00000000
   0.50026838  0.50000000 -0.00000000
   0.66639829 -0.00000000  0.00000000
Direct configuration=     8
   0.00026838  0.00000000 -0.00000000
   0.16639829  0.50000000  0.00000000
   0.50026838  0.50000000 -0.00000000
   0.66639829  0.00000000  0.00000000
Direct configuration=     9
   0.00026838  0.00000000 -0.00000000
   0.16639829  0.50000000  0.00000000
   0.50026838  0.50000000 -0.00000000
   0.66639829  0.00000000  0.00000000
Direct configuration=    10
   0.00026838  0.00000000 -0.00000000
   0.16639829  0.50000000  0.00000000
   0.50026838  0.50000000 -0.00000000
   0.66639829  0.00000000  0.00000000
