    4    4  400    1
  0.5270948E+02  0.4255108E-09  0.2529232E-09  0.1959068E-08  0.5000000E-15
  1.000000000000000E-004
  CAR 
 gr                                      
     16    247     12
 
  0.0000000E+00  0.0000000E+00  0.0000000E+00  0.1157407E-02
    1      -22.080919
    2      -16.703476
    3      -15.864282
    4      -10.225582
    5       -9.474989
    6       -5.991676
    7       -5.742164
    8       -4.904129
    9       -1.143287
   10        0.544760
   11        1.342855
   12        1.736263
 
  0.4166667E-01  0.0000000E+00  0.0000000E+00  0.2314815E-02
    1      -22.070545
    2      -16.899886
    3      -15.652864
    4      -10.213271
    5       -9.464576
    6       -6.015417
    7       -5.782339
    8       -4.974304
    9       -1.058315
   10        0.558815
   11        1.357053
   12        1.750641
 
  0.8333333E-01  0.0000000E+00  0.0000000E+00  0.2314815E-02
    1      -22.039430
    2      -17.266572
    3      -15.241242
    4      -10.176360
    5       -9.433386
    6       -6.085267
    7       -5.901411
    8       -5.167640
    9       -0.820766
   10        0.600978
   11        1.399641
   12        1.793774
 
  0.1250000E+00  0.0000000E+00  0.0000000E+00  0.2314815E-02
    1      -21.987592
    2      -17.659547
    3      -14.773687
    4      -10.114903
    5       -9.381569
    6       -6.197358
    7       -6.095234
    8       -5.446958
    9       -0.468353
   10        0.671244
   11        1.470610
   12        1.865662
 
  0.1666667E+00  0.0000000E+00  0.0000000E+00  0.2314815E-02
    1      -21.915066
    2      -18.049246
    3      -14.280244
    4      -10.029000
    5       -9.309382
    6       -6.357530
    7       -6.345967
    8       -5.776955
    9       -0.037274
   10        0.769603
   11        1.569940
   12        1.966304
 
  0.2083333E+00  0.0000000E+00  0.0000000E+00  0.2314815E-02
    1      -21.821903
    2      -18.427420
    3      -13.769852
    4       -9.918788
    5       -9.217195
    6       -6.680650
    7       -6.524323
    8       -6.132432
    9        0.446015
   10        0.896041
   11        1.697600
   12        2.095698
 
  0.2500000E+00  0.0000000E+00  0.0000000E+00  0.2314815E-02
    1      -21.708166
    2      -18.790798
    3      -13.246696
    4       -9.784457
    5       -9.105506
    6       -7.056316
    7       -6.725361
    8       -6.497137
    9        0.963620
   10        1.050534
   11        1.853548
   12        2.253842
 
  0.2916667E+00  0.0000000E+00  0.0000000E+00  0.2314815E-02
    1      -21.573936
    2      -19.137723
    3      -12.713590
    4       -9.626248
    5       -8.974954
    6       -7.476227
    7       -6.942283
    8       -6.860754
    9        1.233047
   10        1.503182
   11        2.037720
   12        2.440728
 
  0.3333333E+00  0.0000000E+00  0.0000000E+00  0.2314815E-02
    1      -21.419309
    2      -19.467202
    3      -12.172965
    4       -9.444468
    5       -8.826344
    6       -7.932478
    7       -7.216606
    8       -7.168896
    9        1.443536
   10        2.055486
   11        2.250021
   12        2.656349
 
  0.3750000E+00  0.0000000E+00  0.0000000E+00  0.2314815E-02
    1      -21.244400
    2      -19.778561
    3      -11.627244
    4       -9.239500
    5       -8.660676
    6       -8.417815
    7       -7.560227
    8       -7.399769
    9        1.681937
   10        2.490294
   11        2.612689
   12        2.900685
 
  0.4166667E+00  0.0000000E+00  0.0000000E+00  0.2314815E-02
    1      -21.049344
    2      -20.071302
    3      -11.079028
    4       -9.011819
    5       -8.925737
    6       -8.479176
    7       -7.888523
    8       -7.630248
    9        1.948160
   10        2.758225
   11        3.165161
   12        3.173698
 
  0.4583333E+00  0.0000000E+00  0.0000000E+00  0.2314815E-02
    1      -20.834300
    2      -20.345038
    3      -10.531222
    4       -9.450509
    5       -8.762021
    6       -8.283346
    7       -8.199278
    8       -7.856419
    9        2.242069
   10        2.911767
   11        3.053005
   12        3.475290
 
  0.5000000E+00  0.0000000E+00  0.0000000E+00  0.1157407E-02
    1      -20.599458
    2      -20.599458
    3       -9.987122
    4       -9.987122
    5       -8.490856
    6       -8.490856
    7       -8.075019
    8       -8.075019
    9        2.563432
   10        2.563432
   11        3.370976
   12        3.370976
 
  0.0000000E+00  0.2777778E-01  0.0000000E+00  0.2314815E-02
    1      -22.067909
    2      -16.692245
    3      -15.853910
    4      -10.210142
    5       -9.533165
    6       -6.045265
    7       -5.774341
    8       -4.888380
    9       -1.149453
   10        0.562355
   11        1.360706
   12        1.754337
 
  0.4166667E-01  0.2777778E-01  0.0000000E+00  0.4629630E-02
    1      -22.057536
    2      -16.888555
    3      -15.642653
    4      -10.197837
    5       -9.522720
    6       -6.071982
    7       -5.810806
    8       -4.958733
    9       -1.064435
   10        0.576411
   11        1.374902
   12        1.768715
 
  0.8333333E-01  0.2777778E-01  0.0000000E+00  0.4629630E-02
    1      -22.026424
    2      -17.255041
    3      -15.231419
    4      -10.160938
    5       -9.491435
    6       -6.151910
    7       -5.917735
    8       -5.152467
    9       -0.826885
   10        0.618578
   11        1.417488
   12        1.811849
 
  0.1250000E+00  0.2777778E-01  0.0000000E+00  0.4629630E-02
    1      -21.974594
    2      -17.647811
    3      -14.764391
    4      -10.099505
    5       -9.439454
    6       -6.286490
    7       -6.086021
    8       -5.432176
    9       -0.474741
   10        0.688851
   11        1.488451
   12        1.883738
 
  0.1666667E+00  0.2777778E-01  0.0000000E+00  0.4629630E-02
    1      -21.902079
    2      -18.037324
    3      -14.271601
    4      -10.013633
    5       -9.367024
    6       -6.485631
    7       -6.294187
    8       -5.762447
    9       -0.044315
   10        0.787221
   11        1.587773
   12        1.984382
 
  0.2083333E+00  0.2777778E-01  0.0000000E+00  0.4629630E-02
    1      -21.808930
    2      -18.415335
    3      -13.762005
    4       -9.903462
    5       -9.274500
    6       -6.763827
    7       -6.513726
    8       -6.118072
    9        0.437928
   10        0.913670
   11        1.715423
   12        2.113779
 
  0.2500000E+00  0.2777778E-01  0.0000000E+00  0.4629630E-02
    1      -21.695210
    2      -18.778571
    3      -13.239815
    4       -9.769181
    5       -9.162360
    6       -7.113658
    7       -6.737010
    8       -6.482825
    9        0.954129
   10        1.068176
   11        1.871359
   12        2.271926
 
  0.2916667E+00  0.2777778E-01  0.0000000E+00  0.4629630E-02
    1      -21.561002
    2      -19.125374
    3      -12.707883
    4       -9.611032
    5       -9.031217
    6       -7.517441
    7       -6.966800
    8       -6.846423
    9        1.250704
   10        1.491975
   11        2.055519
   12        2.458817
 
  0.3333333E+00  0.2777778E-01  0.0000000E+00  0.4629630E-02
    1      -21.406401
    2      -19.454747
    3      -12.168691
    4       -9.429321
    5       -8.881842
    6       -7.962389
    7       -7.202213
    8       -7.201863
    9        1.461208
   10        2.042315
   11        2.267808
   12        2.674443
 
  0.3750000E+00  0.2777778E-01  0.0000000E+00  0.4629630E-02
    1      -21.231523
    2      -19.766015
    3      -11.624724
    4       -9.224430
    5       -8.715188
    6       -8.439258
    7       -7.545746
    8       -7.438758
    9        1.699628
   10        2.508073
   11        2.597442
   12        2.918787
 
  0.4166667E+00  0.2777778E-01  0.0000000E+00  0.4629630E-02
    1      -21.036503
    2      -20.058679
    3      -11.078664
    4       -8.996835
    5       -8.940619
    6       -8.532426
    7       -7.873942
    8       -7.673729
    9        1.965874
   10        2.776009
   11        3.148313
   12        3.191816
 
  0.4583333E+00  0.2777778E-01  0.0000000E+00  0.4629630E-02
    1      -20.821501
    2      -20.332347
    3      -10.533518
    4       -9.460221
    5       -8.747131
    6       -8.334981
    7       -8.184592
    8       -7.903331
    9        2.259818
   10        2.929717
   11        3.070824
   12        3.493443
 
  0.5000000E+00  0.2777778E-01  0.0000000E+00  0.2314815E-02
    1      -20.586709
    2      -20.586709
    3       -9.992718
    4       -9.992718
    5       -8.476066
    6       -8.476066
    7       -8.124586
    8       -8.124586
    9        2.581244
   10        2.581244
   11        3.388834
   12        3.388834
 
  0.0000000E+00  0.5555556E-01  0.0000000E+00  0.2314815E-02
    1      -22.028889
    2      -16.658556
    3      -15.823002
    4      -10.163856
    5       -9.702894
    6       -6.201861
    7       -5.869838
    8       -4.841153
    9       -1.168734
   10        0.615147
   11        1.414252
   12        1.808560
 
  0.4166667E-01  0.5555556E-01  0.0000000E+00  0.4629630E-02
    1      -22.018520
    2      -16.854588
    3      -15.612214
    4      -10.151564
    5       -9.692350
    6       -6.234856
    7       -5.897895
    8       -4.912057
    9       -1.083565
   10        0.629206
   11        1.428445
   12        1.822939
 
  0.8333333E-01  0.5555556E-01  0.0000000E+00  0.4629630E-02
    1      -21.987421
    2      -17.220480
    3      -15.202156
    4      -10.114707
    5       -9.660760
    6       -6.331829
    7       -5.981757
    8       -5.107016
    9       -0.845994
   10        0.671384
   11        1.471019
   12        1.866075
 
  0.1250000E+00  0.5555556E-01  0.0000000E+00  0.4629630E-02
    1      -21.935612
    2      -17.612634
    3      -14.736740
    4      -10.053342
    5       -9.608250
    6       -6.488190
    7       -6.119320
    8       -5.387925
    9       -0.494661
   10        0.741675
   11        1.541965
   12        1.937968
 
  0.1666667E+00  0.5555556E-01  0.0000000E+00  0.4629630E-02
    1      -21.863130
    2      -18.001587
    3      -14.245965
    4       -9.967567
    5       -9.535035
    6       -6.699671
    7       -6.304540
    8       -5.719030
    9       -0.066219
   10        0.840069
   11        1.641261
   12        2.038617
 
  0.2083333E+00  0.5555556E-01  0.0000000E+00  0.4629630E-02
    1      -21.770023
    2      -18.379106
    3      -13.738835
    4       -9.857520
    5       -9.441421
    6       -6.964203
    7       -6.526644
    8       -6.075100
    9        0.412845
   10        0.966549
   11        1.768880
   12        2.168021
 
  0.2500000E+00  0.5555556E-01  0.0000000E+00  0.4629630E-02
    1      -21.656355
    2      -18.741915
    3      -13.219655
    4       -9.723392
    5       -9.327819
    6       -7.281162
    7       -6.772100
    8       -6.439995
    9        0.924776
   10        1.121089
   11        1.924779
   12        2.326176
 
  0.2916667E+00  0.5555556E-01  0.0000000E+00  0.4629630E-02
    1      -21.522212
    2      -19.088348
    3      -12.691403
    4       -9.565424
    5       -9.194752
    6       -7.648469
    7       -7.028600
    8       -6.803528
    9        1.303655
   10        1.457404
   11        2.108898
   12        2.513078
 
  0.3333333E+00  0.5555556E-01  0.0000000E+00  0.4629630E-02
    1      -21.367689
    2      -19.417403
    3      -12.156723
    4       -9.383922
    5       -9.042872
    6       -8.060865
    7       -7.287627
    8       -7.159123
    9        1.514201
   10        2.001763
   11        2.321148
   12        2.728718
 
  0.3750000E+00  0.5555556E-01  0.0000000E+00  0.4629630E-02
    1      -21.192903
    2      -19.728397
    3      -11.618315
    4       -9.179267
    5       -8.872974
    6       -8.510927
    7       -7.543954
    8       -7.502387
    9        1.752667
   10        2.550496
   11        2.561385
   12        2.973083
 
  0.4166667E+00  0.5555556E-01  0.0000000E+00  0.4629630E-02
    1      -20.997992
    2      -20.020824
    3      -11.079138
    4       -8.990853
    5       -8.951935
    6       -8.686020
    7       -7.830275
    8       -7.794115
    9        2.018971
   10        2.829332
   11        3.095924
   12        3.246148
 
  0.4583333E+00  0.5555556E-01  0.0000000E+00  0.4629630E-02
    1      -20.783118
    2      -20.294290
    3      -10.542561
    4       -9.493459
    5       -8.702518
    6       -8.483162
    7       -8.140604
    8       -8.035458
    9        2.312998
   10        2.983351
   11        3.124255
   12        3.547859
 
  0.5000000E+00  0.5555556E-01  0.0000000E+00  0.2314815E-02
    1      -20.548476
    2      -20.548476
    3      -10.012481
    4      -10.012481
    5       -8.431759
    6       -8.431759
    7       -8.265770
    8       -8.265770
    9        2.634568
   10        2.634568
   11        3.442396
   12        3.442396
 
  0.0000000E+00  0.8333333E-01  0.0000000E+00  0.2314815E-02
    1      -21.963896
    2      -16.602422
    3      -15.772228
    4      -10.086819
    5       -9.971077
    6       -6.450178
    7       -6.025671
    8       -4.762504
    9       -1.203461
   10        0.703161
   11        1.503471
   12        1.898938
 
  0.4166667E-01  0.8333333E-01  0.0000000E+00  0.4629630E-02
    1      -21.953535
    2      -16.798060
    3      -15.562176
    4      -10.074551
    5       -9.960343
    6       -6.489446
    7       -6.044108
    8       -4.834388
    9       -1.117999
   10        0.717224
   11        1.517657
   12        1.913317
 
  0.8333333E-01  0.8333333E-01  0.0000000E+00  0.4629630E-02
    1      -21.922457
    2      -17.162995
    3      -15.154113
    4      -10.037765
    5       -9.928171
    6       -6.601025
    7       -6.103860
    8       -5.031505
    9       -0.880329
   10        0.759412
   11        1.560212
   12        1.956455
 
  0.1250000E+00  0.8333333E-01  0.0000000E+00  0.4629630E-02
    1      -21.870686
    2      -17.554122
    3      -14.691513
    4       -9.976518
    5       -9.874649
    6       -6.772117
    7       -6.212466
    8       -5.314501
    9       -0.530343
   10        0.829720
   11        1.631125
   12        2.028351
 
  0.1666667E+00  0.8333333E-01  0.0000000E+00  0.4629630E-02
    1      -21.798257
    2      -17.942131
    3      -14.204299
    4       -9.890907
    5       -9.799926
    6       -6.991215
    7       -6.373001
    8       -5.647037
    9       -0.105281
   10        0.928141
   11        1.730375
   12        2.129006
 
  0.2083333E+00  0.8333333E-01  0.0000000E+00  0.4629630E-02
    1      -21.705219
    2      -18.318818
    3      -13.701576
    4       -9.781074
    5       -9.704207
    6       -7.250668
    7       -6.582118
    8       -6.003855
    9        0.368354
   10        1.054655
   11        1.857935
   12        2.258418
 
  0.2500000E+00  0.8333333E-01  0.0000000E+00  0.4629630E-02
    1      -21.591642
    2      -18.680905
    3      -13.187829
    4       -9.647208
    5       -9.587763
    6       -7.546722
    7       -6.830869
    8       -6.368973
    9        0.872998
   10        1.209238
   11        2.013762
   12        2.416585
 
  0.2916667E+00  0.8333333E-01  0.0000000E+00  0.4629630E-02
    1      -21.457607
    2      -19.026714
    3      -12.666292
    4       -9.489550
    5       -9.450920
    6       -7.878804
    7       -7.106379
    8       -6.732375
    9        1.391852
   10        1.396727
   11        2.197801
   12        2.603501
 
  0.3333333E+00  0.8333333E-01  0.0000000E+00  0.4629630E-02
    1      -21.303213
    2      -19.355232
    3      -12.139952
    4       -9.308407
    5       -9.294065
    6       -8.247874
    7       -7.394370
    8       -7.087620
    9        1.602449
   10        1.930863
   11        2.409969
   12        2.819160
 
  0.3750000E+00  0.8333333E-01  0.0000000E+00  0.4629630E-02
    1      -21.128582
    2      -19.665762
    3      -11.611963
    4       -9.117636
    5       -9.104160
    6       -8.653974
    7       -7.682261
    8       -7.430407
    9        1.840971
   10        2.468508
   11        2.650141
   12        3.063551
 
  0.4166667E+00  0.8333333E-01  0.0000000E+00  0.4629630E-02
    1      -20.933854
    2      -19.957792
    3      -11.085882
    4       -9.094462
    5       -8.922120
    6       -8.877280
    7       -7.961322
    8       -7.757756
    9        2.107340
   10        2.918088
   11        3.003351
   12        3.336656
 
  0.4583333E+00  0.8333333E-01  0.0000000E+00  0.4629630E-02
    1      -20.719197
    2      -20.230915
    3      -10.565849
    4       -9.564162
    5       -8.708043
    6       -8.628356
    7       -8.226686
    8       -8.067524
    9        2.401454
   10        3.072242
   11        3.213200
   12        3.523425
 
  0.5000000E+00  0.8333333E-01  0.0000000E+00  0.2314815E-02
    1      -20.484807
    2      -20.484807
    3      -10.056725
    4      -10.056725
    5       -8.475987
    6       -8.475987
    7       -8.358126
    8       -8.358126
    9        2.723167
   10        2.723167
   11        3.531617
   12        3.531617
 
  0.0000000E+00  0.1111111E+00  0.0000000E+00  0.2314815E-02
    1      -21.872994
    2      -16.523863
    3      -15.702857
    4      -10.319354
    5       -9.979197
    6       -6.774715
    7       -6.237207
    8       -4.652534
    9       -1.257420
   10        0.826430
   11        1.628326
   12        2.025476
 
  0.4166667E-01  0.1111111E+00  0.0000000E+00  0.4629630E-02
    1      -21.862643
    2      -16.719109
    3      -15.493731
    4      -10.308296
    5       -9.966963
    6       -6.819308
    7       -6.246021
    8       -4.725929
    9       -1.171441
   10        0.840492
   11        1.642502
   12        2.039855
 
  0.8333333E-01  0.1111111E+00  0.0000000E+00  0.4629630E-02
    1      -21.831598
    2      -17.082780
    3      -15.088566
    4      -10.275131
    5       -9.930279
    6       -6.942687
    7       -6.281693
    8       -4.926334
    9       -0.933463
   10        0.882680
   11        1.685025
   12        2.082993
 
  0.1250000E+00  0.1111111E+00  0.0000000E+00  0.4629630E-02
    1      -21.779879
    2      -17.472464
    3      -14.630226
    4      -10.219874
    5       -9.869204
    6       -7.125219
    7       -6.360255
    8       -5.212450
    9       -0.585325
   10        0.952994
   11        1.755884
   12        2.154891
 
  0.1666667E+00  0.1111111E+00  0.0000000E+00  0.4629630E-02
    1      -21.707524
    2      -17.859129
    3      -14.148513
    4      -10.142544
    5       -9.783835
    6       -7.350892
    7       -6.491558
    8       -5.547077
    9       -0.165115
   10        1.051427
   11        1.855058
   12        2.255550
 
  0.2083333E+00  0.1111111E+00  0.0000000E+00  0.4629630E-02
    1      -21.614586
    2      -18.234626
    3      -13.652712
    4      -10.043154
    5       -9.674314
    6       -7.609178
    7       -6.677472
    8       -5.904948
    9        0.300683
   10        1.177964
   11        1.982518
   12        2.384968
 
  0.2500000E+00  0.1111111E+00  0.0000000E+00  0.4629630E-02
    1      -21.501134
    2      -18.595677
    3      -13.147647
    4       -9.921688
    5       -9.540830
    6       -7.893818
    7       -6.913516
    8       -6.270343
    9        0.794827
   10        1.332580
   11        2.138222
   12        2.543145
 
  0.2916667E+00  0.1111111E+00  0.0000000E+00  0.4629630E-02
    1      -21.367251
    2      -18.940593
    3      -12.637040
    4       -9.778073
    5       -9.383627
    6       -8.202016
    7       -7.190402
    8       -6.633509
    9        1.305764
   10        1.515234
   11        2.322116
   12        2.730076
 
  0.3333333E+00  0.1111111E+00  0.0000000E+00  0.4629630E-02
    1      -21.213043
    2      -19.268341
    3      -12.124547
    4       -9.612141
    5       -9.203010
    6       -8.533997
    7       -7.495333
    8       -6.988201
    9        1.725876
   10        1.825214
   11        2.534126
   12        2.945753
 
  0.3750000E+00  0.1111111E+00  0.0000000E+00  0.4629630E-02
    1      -21.038631
    2      -19.578210
    3      -11.614214
    4       -9.423582
    5       -8.999360
    6       -8.892284
    7       -7.813504
    8       -7.330259
    9        1.964444
   10        2.346769
   11        2.774147
   12        3.190168
 
  0.4166667E+00  0.1111111E+00  0.0000000E+00  0.4629630E-02
    1      -20.844163
    2      -19.869672
    3      -11.110741
    4       -9.280072
    5       -9.211910
    6       -8.773146
    7       -8.130282
    8       -7.656794
    9        2.230861
   10        2.865068
   11        3.042018
   12        3.463307
 
  0.4583333E+00  0.1111111E+00  0.0000000E+00  0.4629630E-02
    1      -20.629812
    2      -20.142308
    3      -10.619615
    4       -9.698882
    5       -8.976519
    6       -8.524951
    7       -8.433866
    8       -7.965725
    9        2.525031
   10        3.196071
   11        3.337366
   12        3.374856
 
  0.5000000E+00  0.1111111E+00  0.0000000E+00  0.2314815E-02
    1      -20.395781
    2      -20.395781
    3      -10.146962
    4      -10.146962
    5       -8.716979
    6       -8.716979
    7       -8.255505
    8       -8.255505
    9        2.846828
   10        2.846828
   11        3.656220
   12        3.656220
 
  0.0000000E+00  0.1388889E+00  0.0000000E+00  0.2314815E-02
    1      -21.756275
    2      -16.422911
    3      -15.617052
    4      -10.727223
    5       -9.841224
    6       -7.158835
    7       -6.498596
    8       -4.511380
    9       -1.335657
   10        0.984974
   11        1.788761
   12        2.188181
 
  0.4166667E-01  0.1388889E+00  0.0000000E+00  0.4629630E-02
    1      -21.745938
    2      -16.617967
    3      -15.408926
    4      -10.715626
    5       -9.829036
    6       -7.207945
    7       -6.497947
    8       -4.587004
    9       -1.248776
   10        0.999031
   11        1.802920
   12        2.202559
 
  0.8333333E-01  0.1388889E+00  0.0000000E+00  0.4629630E-02
    1      -21.714932
    2      -16.980150
    3      -15.007735
    4      -10.680799
    5       -9.792492
    6       -7.341309
    7       -6.509390
    8       -4.792165
    9       -1.010017
   10        1.041205
   11        1.845393
   12        2.245694
 
  0.1250000E+00  0.1388889E+00  0.0000000E+00  0.4629630E-02
    1      -21.663282
    2      -17.367965
    3      -14.555583
    4      -10.622615
    5       -9.731650
    6       -7.533732
    7       -6.556184
    8       -5.082661
    9       -0.664105
   10        1.111500
   11        1.916166
   12        2.317589
 
  0.1666667E+00  0.1388889E+00  0.0000000E+00  0.4629630E-02
    1      -21.591026
    2      -17.752853
    3      -14.082094
    4      -10.540844
    5       -9.646610
    6       -7.765889
    7       -6.653883
    8       -5.420121
    9       -0.250264
   10        1.209918
   11        2.015216
   12        2.418246
 
  0.2083333E+00  0.1388889E+00  0.0000000E+00  0.4629630E-02
    1      -21.498217
    2      -18.126767
    3      -13.596898
    4      -10.435101
    5       -9.537513
    6       -8.025462
    7       -6.808760
    8       -5.779345
    9        0.205158
   10        1.336449
   11        2.142509
   12        2.547666
 
  0.2500000E+00  0.1388889E+00  0.0000000E+00  0.4629630E-02
    1      -21.384927
    2      -18.486441
    3      -13.105467
    4      -10.304789
    5       -9.404551
    6       -8.304755
    7       -7.020142
    8       -6.145019
    9        0.685437
   10        1.491070
   11        2.298001
   12        2.705849
 
  0.2916667E+00  0.1388889E+00  0.0000000E+00  0.4629630E-02
    1      -21.251244
    2      -18.830169
    3      -12.612467
    4      -10.149008
    5       -9.247969
    6       -8.599271
    7       -7.282225
    8       -6.507767
    9        1.179581
   10        1.673741
   11        2.481629
   12        2.892789
 
  0.3333333E+00  0.1388889E+00  0.0000000E+00  0.4629630E-02
    1      -21.097276
    2      -19.156897
    3      -12.122831
    4       -9.966470
    5       -9.068072
    6       -8.907166
    7       -7.585382
    8       -6.861628
    9        1.679847
   10        1.884406
   11        2.693315
   12        3.108481
 
  0.3750000E+00  0.1388889E+00  0.0000000E+00  0.4629630E-02
    1      -20.923152
    2      -19.465890
    3      -11.642194
    4       -9.755466
    5       -9.229124
    6       -8.865240
    7       -7.917138
    8       -7.202630
    9        2.122996
   10        2.180381
   11        2.932955
   12        3.352916
 
  0.4166667E+00  0.1388889E+00  0.0000000E+00  0.4629630E-02
    1      -20.729024
    2      -19.756601
    3      -11.176918
    4       -9.568231
    5       -9.514084
    6       -8.639942
    7       -8.263014
    8       -7.528008
    9        2.389429
   10        2.676464
   11        3.200414
   12        3.626082
 
  0.4583333E+00  0.1388889E+00  0.0000000E+00  0.4629630E-02
    1      -20.515075
    2      -20.028594
    3      -10.733481
    4       -9.929283
    5       -9.241007
    6       -8.607712
    7       -8.392754
    8       -7.835761
    9        2.683608
   10        3.164080
   11        3.354684
   12        3.495498
 
  0.5000000E+00  0.1388889E+00  0.0000000E+00  0.2314815E-02
    1      -20.281516
    2      -20.281516
    3      -10.316986
    4      -10.316986
    5       -8.937151
    6       -8.937151
    7       -8.124393
    8       -8.124393
    9        3.005413
   10        3.005413
   11        3.639473
   12        3.639473
 
  0.0000000E+00  0.1666667E+00  0.0000000E+00  0.2314815E-02
    1      -21.613861
    2      -16.299606
    3      -15.518445
    4      -11.173891
    5       -9.673217
    6       -7.586955
    7       -6.803241
    8       -4.339228
    9       -1.444079
   10        1.178799
   11        1.984697
   12        2.387056
 
  0.4166667E-01  0.1666667E+00  0.0000000E+00  0.4629630E-02
    1      -21.603540
    2      -16.495013
    3      -15.311220
    4      -11.161378
    5       -9.661090
    6       -7.640070
    7       -6.793281
    8       -4.418124
    9       -1.355602
   10        1.192845
   11        1.998830
   12        2.401432
 
  0.8333333E-01  0.1666667E+00  0.0000000E+00  0.4629630E-02
    1      -21.572585
    2      -16.855609
    3      -14.915471
    4      -11.123709
    5       -9.624728
    6       -7.782373
    7       -6.780393
    8       -4.630065
    9       -1.115075
   10        1.234986
   11        2.041221
   12        2.444562
 
  0.1250000E+00  0.1666667E+00  0.0000000E+00  0.4629630E-02
    1      -21.521021
    2      -17.241103
    3      -14.472417
    4      -11.060472
    5       -9.564192
    6       -7.983939
    7       -6.794060
    8       -4.926539
    9       -0.771490
   10        1.305234
   11        2.111854
   12        2.516448
 
  0.1666667E+00  0.1666667E+00  0.0000000E+00  0.4629630E-02
    1      -21.448885
    2      -17.623719
    3      -14.011470
    4      -10.970910
    5       -9.479582
    6       -8.222757
    7       -6.854782
    8       -5.267671
    9       -0.365480
   10        1.403598
   11        2.210696
   12        2.617095
 
  0.2083333E+00  0.1666667E+00  0.0000000E+00  0.4629630E-02
    1      -21.356237
    2      -17.995599
    3      -13.542968
    4      -10.853815
    5       -9.371043
    6       -8.485261
    7       -6.972739
    8       -5.628505
    9        0.076991
   10        1.530079
   11        2.337702
   12        2.746507
 
  0.2500000E+00  0.1666667E+00  0.0000000E+00  0.4629630E-02
    1      -21.243149
    2      -18.353503
    3      -13.073655
    4      -10.707394
    5       -9.238768
    6       -8.762963
    7       -7.150658
    8       -5.994355
    9        0.540043
   10        1.684663
   11        2.492803
   12        2.904686
 
  0.2916667E+00  0.1666667E+00  0.0000000E+00  0.4629630E-02
    1      -21.109715
    2      -18.695709
    3      -12.609953
    4      -10.529143
    5       -9.083004
    6       -9.050476
    7       -7.385794
    8       -6.356383
    9        1.013517
   10        1.867310
   11        2.675899
   12        3.091629
 
  0.3333333E+00  0.1666667E+00  0.0000000E+00  0.4629630E-02
    1      -20.956047
    2      -19.021132
    3      -12.158828
    4      -10.315939
    5       -9.344649
    6       -8.904059
    7       -7.671318
    8       -6.709008
    9        1.490436
   10        2.077962
   11        2.886836
   12        3.307330
 
  0.3750000E+00  0.1666667E+00  0.0000000E+00  0.4629630E-02
    1      -20.782283
    2      -19.329010
    3      -11.727527
    4      -10.064708
    5       -9.644291
    6       -8.702313
    7       -7.997435
    8       -7.048508
    9        1.965652
   10        2.316540
   11        3.125316
   12        3.551780
 
  0.4166667E+00  0.1666667E+00  0.0000000E+00  0.4629630E-02
    1      -20.588584
    2      -19.618767
    3      -11.322126
    4       -9.950206
    5       -9.774123
    6       -8.478233
    7       -8.352194
    8       -7.372278
    9        2.435095
   10        2.582953
   11        3.390410
   12        3.824965
 
  0.4583333E+00  0.1666667E+00  0.0000000E+00  0.4629630E-02
    1      -20.375140
    2      -19.889947
    3      -10.945282
    4      -10.265369
    5       -9.447032
    6       -8.721980
    7       -8.232391
    8       -7.678417
    9        2.877092
   10        2.895236
   11        3.548010
   12        3.663170
 
  0.5000000E+00  0.1666667E+00  0.0000000E+00  0.2314815E-02
    1      -20.142174
    2      -20.142174
    3      -10.594909
    4      -10.594909
    5       -9.091948
    6       -9.091948
    7       -7.965493
    8       -7.965493
    9        3.198830
   10        3.198830
   11        3.341852
   12        3.341852
 