<?xml version="1.0" encoding="ISO-8859-1"?>
<modeling>
 <generator>
  <i name="program" type="string">vasp </i>
  <i name="version" type="string">5.3.5  </i>
  <i name="subversion" type="string">31Mar14 (build Mar 02 2015 18:14:16) complex                          parallel </i>
  <i name="platform" type="string">LinuxIFC </i>
  <i name="date" type="string">2018 08 09 </i>
  <i name="time" type="string">21:57:03 </i>
 </generator>
 <incar>
  <i type="string" name="SYSTEM">  gr</i>
  <i type="string" name="PREC">accurate : accuracy</i>
  <i type="string" name="ALGO"> FAST.</i>
  <i type="int" name="NELM">   100</i>
  <i type="int" name="NELMDL">    -3</i>
  <i type="int" name="NELMIN">     5</i>
  <i type="int" name="IBRION">     1</i>
  <i name="EDIFF">      0.00000000</i>
  <i name="EDIFFG">     -0.00000100</i>
  <i type="int" name="NSW">   400</i>
  <i type="int" name="ISIF">     2</i>
  <i name="ENCUT">   2000.00000000</i>
  <i type="int" name="ISMEAR">     0</i>
  <i name="SIGMA">      0.05000000</i>
  <i type="int" name="NWRITE">     2</i>
  <i type="logical" name="LWAVE"> F  </i>
  <i type="logical" name="LCHARG"> F  </i>
  <i type="int" name="NELM">   100</i>
 </incar>
 <kpoints>
  <generation param="Gamma">
   <v type="int" name="divisions">      24       36        1 </v>
   <v name="usershift">      0.00000000       0.00000000       0.00000000 </v>
   <v name="genvec1">      0.04166667       0.00000000       0.00000000 </v>
   <v name="genvec2">      0.00000000       0.02777778       0.00000000 </v>
   <v name="genvec3">      0.00000000       0.00000000       1.00000000 </v>
   <v name="shift">      0.00000000       0.00000000       0.00000000 </v>
  </generation>
  <varray name="kpointlist" >
   <v>       0.00000000       0.00000000       0.00000000 </v>
   <v>       0.04166667       0.00000000       0.00000000 </v>
   <v>       0.08333333       0.00000000       0.00000000 </v>
   <v>       0.12500000       0.00000000       0.00000000 </v>
   <v>       0.16666667       0.00000000       0.00000000 </v>
   <v>       0.20833333       0.00000000       0.00000000 </v>
   <v>       0.25000000       0.00000000       0.00000000 </v>
   <v>       0.29166667       0.00000000       0.00000000 </v>
   <v>       0.33333333       0.00000000       0.00000000 </v>
   <v>       0.37500000       0.00000000       0.00000000 </v>
   <v>       0.41666667       0.00000000       0.00000000 </v>
   <v>       0.45833333       0.00000000       0.00000000 </v>
   <v>       0.50000000       0.00000000       0.00000000 </v>
   <v>       0.00000000       0.02777778       0.00000000 </v>
   <v>       0.04166667       0.02777778       0.00000000 </v>
   <v>       0.08333333       0.02777778       0.00000000 </v>
   <v>       0.12500000       0.02777778       0.00000000 </v>
   <v>       0.16666667       0.02777778       0.00000000 </v>
   <v>       0.20833333       0.02777778       0.00000000 </v>
   <v>       0.25000000       0.02777778       0.00000000 </v>
   <v>       0.29166667       0.02777778       0.00000000 </v>
   <v>       0.33333333       0.02777778       0.00000000 </v>
   <v>       0.37500000       0.02777778       0.00000000 </v>
   <v>       0.41666667       0.02777778       0.00000000 </v>
   <v>       0.45833333       0.02777778       0.00000000 </v>
   <v>       0.50000000       0.02777778       0.00000000 </v>
   <v>       0.00000000       0.05555556       0.00000000 </v>
   <v>       0.04166667       0.05555556       0.00000000 </v>
   <v>       0.08333333       0.05555556       0.00000000 </v>
   <v>       0.12500000       0.05555556       0.00000000 </v>
   <v>       0.16666667       0.05555556       0.00000000 </v>
   <v>       0.20833333       0.05555556       0.00000000 </v>
   <v>       0.25000000       0.05555556       0.00000000 </v>
   <v>       0.29166667       0.05555556       0.00000000 </v>
   <v>       0.33333333       0.05555556       0.00000000 </v>
   <v>       0.37500000       0.05555556       0.00000000 </v>
   <v>       0.41666667       0.05555556       0.00000000 </v>
   <v>       0.45833333       0.05555556       0.00000000 </v>
   <v>       0.50000000       0.05555556       0.00000000 </v>
   <v>       0.00000000       0.08333333       0.00000000 </v>
   <v>       0.04166667       0.08333333       0.00000000 </v>
   <v>       0.08333333       0.08333333       0.00000000 </v>
   <v>       0.12500000       0.08333333       0.00000000 </v>
   <v>       0.16666667       0.08333333       0.00000000 </v>
   <v>       0.20833333       0.08333333       0.00000000 </v>
   <v>       0.25000000       0.08333333       0.00000000 </v>
   <v>       0.29166667       0.08333333       0.00000000 </v>
   <v>       0.33333333       0.08333333       0.00000000 </v>
   <v>       0.37500000       0.08333333       0.00000000 </v>
   <v>       0.41666667       0.08333333       0.00000000 </v>
   <v>       0.45833333       0.08333333       0.00000000 </v>
   <v>       0.50000000       0.08333333       0.00000000 </v>
   <v>       0.00000000       0.11111111       0.00000000 </v>
   <v>       0.04166667       0.11111111       0.00000000 </v>
   <v>       0.08333333       0.11111111       0.00000000 </v>
   <v>       0.12500000       0.11111111       0.00000000 </v>
   <v>       0.16666667       0.11111111       0.00000000 </v>
   <v>       0.20833333       0.11111111       0.00000000 </v>
   <v>       0.25000000       0.11111111       0.00000000 </v>
   <v>       0.29166667       0.11111111       0.00000000 </v>
   <v>       0.33333333       0.11111111       0.00000000 </v>
   <v>       0.37500000       0.11111111       0.00000000 </v>
   <v>       0.41666667       0.11111111       0.00000000 </v>
   <v>       0.45833333       0.11111111       0.00000000 </v>
   <v>       0.50000000       0.11111111       0.00000000 </v>
   <v>       0.00000000       0.13888889       0.00000000 </v>
   <v>       0.04166667       0.13888889       0.00000000 </v>
   <v>       0.08333333       0.13888889       0.00000000 </v>
   <v>       0.12500000       0.13888889       0.00000000 </v>
   <v>       0.16666667       0.13888889       0.00000000 </v>
   <v>       0.20833333       0.13888889       0.00000000 </v>
   <v>       0.25000000       0.13888889       0.00000000 </v>
   <v>       0.29166667       0.13888889       0.00000000 </v>
   <v>       0.33333333       0.13888889       0.00000000 </v>
   <v>       0.37500000       0.13888889       0.00000000 </v>
   <v>       0.41666667       0.13888889       0.00000000 </v>
   <v>       0.45833333       0.13888889       0.00000000 </v>
   <v>       0.50000000       0.13888889       0.00000000 </v>
   <v>       0.00000000       0.16666667       0.00000000 </v>
   <v>       0.04166667       0.16666667       0.00000000 </v>
   <v>       0.08333333       0.16666667       0.00000000 </v>
   <v>       0.12500000       0.16666667       0.00000000 </v>
   <v>       0.16666667       0.16666667       0.00000000 </v>
   <v>       0.20833333       0.16666667       0.00000000 </v>
   <v>       0.25000000       0.16666667       0.00000000 </v>
   <v>       0.29166667       0.16666667       0.00000000 </v>
   <v>       0.33333333       0.16666667       0.00000000 </v>
   <v>       0.37500000       0.16666667       0.00000000 </v>
   <v>       0.41666667       0.16666667       0.00000000 </v>
   <v>       0.45833333       0.16666667       0.00000000 </v>
   <v>       0.50000000       0.16666667       0.00000000 </v>
   <v>       0.00000000       0.19444444       0.00000000 </v>
   <v>       0.04166667       0.19444444       0.00000000 </v>
   <v>       0.08333333       0.19444444       0.00000000 </v>
   <v>       0.12500000       0.19444444       0.00000000 </v>
   <v>       0.16666667       0.19444444       0.00000000 </v>
   <v>       0.20833333       0.19444444       0.00000000 </v>
   <v>       0.25000000       0.19444444       0.00000000 </v>
   <v>       0.29166667       0.19444444       0.00000000 </v>
   <v>       0.33333333       0.19444444       0.00000000 </v>
   <v>       0.37500000       0.19444444       0.00000000 </v>
   <v>       0.41666667       0.19444444       0.00000000 </v>
   <v>       0.45833333       0.19444444       0.00000000 </v>
   <v>       0.50000000       0.19444444       0.00000000 </v>
   <v>       0.00000000       0.22222222       0.00000000 </v>
   <v>       0.04166667       0.22222222       0.00000000 </v>
   <v>       0.08333333       0.22222222       0.00000000 </v>
   <v>       0.12500000       0.22222222       0.00000000 </v>
   <v>       0.16666667       0.22222222       0.00000000 </v>
   <v>       0.20833333       0.22222222       0.00000000 </v>
   <v>       0.25000000       0.22222222       0.00000000 </v>
   <v>       0.29166667       0.22222222       0.00000000 </v>
   <v>       0.33333333       0.22222222       0.00000000 </v>
   <v>       0.37500000       0.22222222       0.00000000 </v>
   <v>       0.41666667       0.22222222       0.00000000 </v>
   <v>       0.45833333       0.22222222       0.00000000 </v>
   <v>       0.50000000       0.22222222       0.00000000 </v>
   <v>       0.00000000       0.25000000       0.00000000 </v>
   <v>       0.04166667       0.25000000       0.00000000 </v>
   <v>       0.08333333       0.25000000       0.00000000 </v>
   <v>       0.12500000       0.25000000       0.00000000 </v>
   <v>       0.16666667       0.25000000       0.00000000 </v>
   <v>       0.20833333       0.25000000       0.00000000 </v>
   <v>       0.25000000       0.25000000       0.00000000 </v>
   <v>       0.29166667       0.25000000       0.00000000 </v>
   <v>       0.33333333       0.25000000       0.00000000 </v>
   <v>       0.37500000       0.25000000       0.00000000 </v>
   <v>       0.41666667       0.25000000       0.00000000 </v>
   <v>       0.45833333       0.25000000       0.00000000 </v>
   <v>       0.50000000       0.25000000       0.00000000 </v>
   <v>       0.00000000       0.27777778       0.00000000 </v>
   <v>       0.04166667       0.27777778       0.00000000 </v>
   <v>       0.08333333       0.27777778       0.00000000 </v>
   <v>       0.12500000       0.27777778       0.00000000 </v>
   <v>       0.16666667       0.27777778       0.00000000 </v>
   <v>       0.20833333       0.27777778       0.00000000 </v>
   <v>       0.25000000       0.27777778       0.00000000 </v>
   <v>       0.29166667       0.27777778       0.00000000 </v>
   <v>       0.33333333       0.27777778       0.00000000 </v>
   <v>       0.37500000       0.27777778       0.00000000 </v>
   <v>       0.41666667       0.27777778       0.00000000 </v>
   <v>       0.45833333       0.27777778       0.00000000 </v>
   <v>       0.50000000       0.27777778       0.00000000 </v>
   <v>       0.00000000       0.30555556       0.00000000 </v>
   <v>       0.04166667       0.30555556       0.00000000 </v>
   <v>       0.08333333       0.30555556       0.00000000 </v>
   <v>       0.12500000       0.30555556       0.00000000 </v>
   <v>       0.16666667       0.30555556       0.00000000 </v>
   <v>       0.20833333       0.30555556       0.00000000 </v>
   <v>       0.25000000       0.30555556       0.00000000 </v>
   <v>       0.29166667       0.30555556       0.00000000 </v>
   <v>       0.33333333       0.30555556       0.00000000 </v>
   <v>       0.37500000       0.30555556       0.00000000 </v>
   <v>       0.41666667       0.30555556       0.00000000 </v>
   <v>       0.45833333       0.30555556       0.00000000 </v>
   <v>       0.50000000       0.30555556       0.00000000 </v>
   <v>       0.00000000       0.33333333       0.00000000 </v>
   <v>       0.04166667       0.33333333       0.00000000 </v>
   <v>       0.08333333       0.33333333       0.00000000 </v>
   <v>       0.12500000       0.33333333       0.00000000 </v>
   <v>       0.16666667       0.33333333       0.00000000 </v>
   <v>       0.20833333       0.33333333       0.00000000 </v>
   <v>       0.25000000       0.33333333       0.00000000 </v>
   <v>       0.29166667       0.33333333       0.00000000 </v>
   <v>       0.33333333       0.33333333       0.00000000 </v>
   <v>       0.37500000       0.33333333       0.00000000 </v>
   <v>       0.41666667       0.33333333       0.00000000 </v>
   <v>       0.45833333       0.33333333       0.00000000 </v>
   <v>       0.50000000       0.33333333       0.00000000 </v>
   <v>       0.00000000       0.36111111       0.00000000 </v>
   <v>       0.04166667       0.36111111       0.00000000 </v>
   <v>       0.08333333       0.36111111       0.00000000 </v>
   <v>       0.12500000       0.36111111       0.00000000 </v>
   <v>       0.16666667       0.36111111       0.00000000 </v>
   <v>       0.20833333       0.36111111       0.00000000 </v>
   <v>       0.25000000       0.36111111       0.00000000 </v>
   <v>       0.29166667       0.36111111       0.00000000 </v>
   <v>       0.33333333       0.36111111       0.00000000 </v>
   <v>       0.37500000       0.36111111       0.00000000 </v>
   <v>       0.41666667       0.36111111       0.00000000 </v>
   <v>       0.45833333       0.36111111       0.00000000 </v>
   <v>       0.50000000       0.36111111       0.00000000 </v>
   <v>       0.00000000       0.38888889       0.00000000 </v>
   <v>       0.04166667       0.38888889       0.00000000 </v>
   <v>       0.08333333       0.38888889       0.00000000 </v>
   <v>       0.12500000       0.38888889       0.00000000 </v>
   <v>       0.16666667       0.38888889       0.00000000 </v>
   <v>       0.20833333       0.38888889       0.00000000 </v>
   <v>       0.25000000       0.38888889       0.00000000 </v>
   <v>       0.29166667       0.38888889       0.00000000 </v>
   <v>       0.33333333       0.38888889       0.00000000 </v>
   <v>       0.37500000       0.38888889       0.00000000 </v>
   <v>       0.41666667       0.38888889       0.00000000 </v>
   <v>       0.45833333       0.38888889       0.00000000 </v>
   <v>       0.50000000       0.38888889       0.00000000 </v>
   <v>       0.00000000       0.41666667       0.00000000 </v>
   <v>       0.04166667       0.41666667       0.00000000 </v>
   <v>       0.08333333       0.41666667       0.00000000 </v>
   <v>       0.12500000       0.41666667       0.00000000 </v>
   <v>       0.16666667       0.41666667       0.00000000 </v>
   <v>       0.20833333       0.41666667       0.00000000 </v>
   <v>       0.25000000       0.41666667       0.00000000 </v>
   <v>       0.29166667       0.41666667       0.00000000 </v>
   <v>       0.33333333       0.41666667       0.00000000 </v>
   <v>       0.37500000       0.41666667       0.00000000 </v>
   <v>       0.41666667       0.41666667       0.00000000 </v>
   <v>       0.45833333       0.41666667       0.00000000 </v>
   <v>       0.50000000       0.41666667       0.00000000 </v>
   <v>       0.00000000       0.44444444       0.00000000 </v>
   <v>       0.04166667       0.44444444       0.00000000 </v>
   <v>       0.08333333       0.44444444       0.00000000 </v>
   <v>       0.12500000       0.44444444       0.00000000 </v>
   <v>       0.16666667       0.44444444       0.00000000 </v>
   <v>       0.20833333       0.44444444       0.00000000 </v>
   <v>       0.25000000       0.44444444       0.00000000 </v>
   <v>       0.29166667       0.44444444       0.00000000 </v>
   <v>       0.33333333       0.44444444       0.00000000 </v>
   <v>       0.37500000       0.44444444       0.00000000 </v>
   <v>       0.41666667       0.44444444       0.00000000 </v>
   <v>       0.45833333       0.44444444       0.00000000 </v>
   <v>       0.50000000       0.44444444       0.00000000 </v>
   <v>       0.00000000       0.47222222       0.00000000 </v>
   <v>       0.04166667       0.47222222       0.00000000 </v>
   <v>       0.08333333       0.47222222       0.00000000 </v>
   <v>       0.12500000       0.47222222       0.00000000 </v>
   <v>       0.16666667       0.47222222       0.00000000 </v>
   <v>       0.20833333       0.47222222       0.00000000 </v>
   <v>       0.25000000       0.47222222       0.00000000 </v>
   <v>       0.29166667       0.47222222       0.00000000 </v>
   <v>       0.33333333       0.47222222       0.00000000 </v>
   <v>       0.37500000       0.47222222       0.00000000 </v>
   <v>       0.41666667       0.47222222       0.00000000 </v>
   <v>       0.45833333       0.47222222       0.00000000 </v>
   <v>       0.50000000       0.47222222       0.00000000 </v>
   <v>       0.00000000       0.50000000       0.00000000 </v>
   <v>       0.04166667       0.50000000       0.00000000 </v>
   <v>       0.08333333       0.50000000       0.00000000 </v>
   <v>       0.12500000       0.50000000       0.00000000 </v>
   <v>       0.16666667       0.50000000       0.00000000 </v>
   <v>       0.20833333       0.50000000       0.00000000 </v>
   <v>       0.25000000       0.50000000       0.00000000 </v>
   <v>       0.29166667       0.50000000       0.00000000 </v>
   <v>       0.33333333       0.50000000       0.00000000 </v>
   <v>       0.37500000       0.50000000       0.00000000 </v>
   <v>       0.41666667       0.50000000       0.00000000 </v>
   <v>       0.45833333       0.50000000       0.00000000 </v>
   <v>       0.50000000       0.50000000       0.00000000 </v>
  </varray>
  <varray name="weights" >
   <v>       0.00115741 </v>
   <v>       0.00231481 </v>
   <v>       0.00231481 </v>
   <v>       0.00231481 </v>
   <v>       0.00231481 </v>
   <v>       0.00231481 </v>
   <v>       0.00231481 </v>
   <v>       0.00231481 </v>
   <v>       0.00231481 </v>
   <v>       0.00231481 </v>
   <v>       0.00231481 </v>
   <v>       0.00231481 </v>
   <v>       0.00115741 </v>
   <v>       0.00231481 </v>
   <v>       0.00462963 </v>
   <v>       0.00462963 </v>
   <v>       0.00462963 </v>
   <v>       0.00462963 </v>
   <v>       0.00462963 </v>
   <v>       0.00462963 </v>
   <v>       0.00462963 </v>
   <v>       0.00462963 </v>
   <v>       0.00462963 </v>
   <v>       0.00462963 </v>
   <v>       0.00462963 </v>
   <v>       0.00231481 </v>
   <v>       0.00231481 </v>
   <v>       0.00462963 </v>
   <v>       0.00462963 </v>
   <v>       0.00462963 </v>
   <v>       0.00462963 </v>
   <v>       0.00462963 </v>
   <v>       0.00462963 </v>
   <v>       0.00462963 </v>
   <v>       0.00462963 </v>
   <v>       0.00462963 </v>
   <v>       0.00462963 </v>
   <v>       0.00462963 </v>
   <v>       0.00231481 </v>
   <v>       0.00231481 </v>
   <v>       0.00462963 </v>
   <v>       0.00462963 </v>
   <v>       0.00462963 </v>
   <v>       0.00462963 </v>
   <v>       0.00462963 </v>
   <v>       0.00462963 </v>
   <v>       0.00462963 </v>
   <v>       0.00462963 </v>
   <v>       0.00462963 </v>
   <v>       0.00462963 </v>
   <v>       0.00462963 </v>
   <v>       0.00231481 </v>
   <v>       0.00231481 </v>
   <v>       0.00462963 </v>
   <v>       0.00462963 </v>
   <v>       0.00462963 </v>
   <v>       0.00462963 </v>
   <v>       0.00462963 </v>
   <v>       0.00462963 </v>
   <v>       0.00462963 </v>
   <v>       0.00462963 </v>
   <v>       0.00462963 </v>
   <v>       0.00462963 </v>
   <v>       0.00462963 </v>
   <v>       0.00231481 </v>
   <v>       0.00231481 </v>
   <v>       0.00462963 </v>
   <v>       0.00462963 </v>
   <v>       0.00462963 </v>
   <v>       0.00462963 </v>
   <v>       0.00462963 </v>
   <v>       0.00462963 </v>
   <v>       0.00462963 </v>
   <v>       0.00462963 </v>
   <v>       0.00462963 </v>
   <v>       0.00462963 </v>
   <v>       0.00462963 </v>
   <v>       0.00231481 </v>
   <v>       0.00231481 </v>
   <v>       0.00462963 </v>
   <v>       0.00462963 </v>
   <v>       0.00462963 </v>
   <v>       0.00462963 </v>
   <v>       0.00462963 </v>
   <v>       0.00462963 </v>
   <v>       0.00462963 </v>
   <v>       0.00462963 </v>
   <v>       0.00462963 </v>
   <v>       0.00462963 </v>
   <v>       0.00462963 </v>
   <v>       0.00231481 </v>
   <v>       0.00231481 </v>
   <v>       0.00462963 </v>
   <v>       0.00462963 </v>
   <v>       0.00462963 </v>
   <v>       0.00462963 </v>
   <v>       0.00462963 </v>
   <v>       0.00462963 </v>
   <v>       0.00462963 </v>
   <v>       0.00462963 </v>
   <v>       0.00462963 </v>
   <v>       0.00462963 </v>
   <v>       0.00462963 </v>
   <v>       0.00231481 </v>
   <v>       0.00231481 </v>
   <v>       0.00462963 </v>
   <v>       0.00462963 </v>
   <v>       0.00462963 </v>
   <v>       0.00462963 </v>
   <v>       0.00462963 </v>
   <v>       0.00462963 </v>
   <v>       0.00462963 </v>
   <v>       0.00462963 </v>
   <v>       0.00462963 </v>
   <v>       0.00462963 </v>
   <v>       0.00462963 </v>
   <v>       0.00231481 </v>
   <v>       0.00231481 </v>
   <v>       0.00462963 </v>
   <v>       0.00462963 </v>
   <v>       0.00462963 </v>
   <v>       0.00462963 </v>
   <v>       0.00462963 </v>
   <v>       0.00462963 </v>
   <v>       0.00462963 </v>
   <v>       0.00462963 </v>
   <v>       0.00462963 </v>
   <v>       0.00462963 </v>
   <v>       0.00462963 </v>
   <v>       0.00231481 </v>
   <v>       0.00231481 </v>
   <v>       0.00462963 </v>
   <v>       0.00462963 </v>
   <v>       0.00462963 </v>
   <v>       0.00462963 </v>
   <v>       0.00462963 </v>
   <v>       0.00462963 </v>
   <v>       0.00462963 </v>
   <v>       0.00462963 </v>
   <v>       0.00462963 </v>
   <v>       0.00462963 </v>
   <v>       0.00462963 </v>
   <v>       0.00231481 </v>
   <v>       0.00231481 </v>
   <v>       0.00462963 </v>
   <v>       0.00462963 </v>
   <v>       0.00462963 </v>
   <v>       0.00462963 </v>
   <v>       0.00462963 </v>
   <v>       0.00462963 </v>
   <v>       0.00462963 </v>
   <v>       0.00462963 </v>
   <v>       0.00462963 </v>
   <v>       0.00462963 </v>
   <v>       0.00462963 </v>
   <v>       0.00231481 </v>
   <v>       0.00231481 </v>
   <v>       0.00462963 </v>
   <v>       0.00462963 </v>
   <v>       0.00462963 </v>
   <v>       0.00462963 </v>
   <v>       0.00462963 </v>
   <v>       0.00462963 </v>
   <v>       0.00462963 </v>
   <v>       0.00462963 </v>
   <v>       0.00462963 </v>
   <v>       0.00462963 </v>
   <v>       0.00462963 </v>
   <v>       0.00231481 </v>
   <v>       0.00231481 </v>
   <v>       0.00462963 </v>
   <v>       0.00462963 </v>
   <v>       0.00462963 </v>
   <v>       0.00462963 </v>
   <v>       0.00462963 </v>
   <v>       0.00462963 </v>
   <v>       0.00462963 </v>
   <v>       0.00462963 </v>
   <v>       0.00462963 </v>
   <v>       0.00462963 </v>
   <v>       0.00462963 </v>
   <v>       0.00231481 </v>
   <v>       0.00231481 </v>
   <v>       0.00462963 </v>
   <v>       0.00462963 </v>
   <v>       0.00462963 </v>
   <v>       0.00462963 </v>
   <v>       0.00462963 </v>
   <v>       0.00462963 </v>
   <v>       0.00462963 </v>
   <v>       0.00462963 </v>
   <v>       0.00462963 </v>
   <v>       0.00462963 </v>
   <v>       0.00462963 </v>
   <v>       0.00231481 </v>
   <v>       0.00231481 </v>
   <v>       0.00462963 </v>
   <v>       0.00462963 </v>
   <v>       0.00462963 </v>
   <v>       0.00462963 </v>
   <v>       0.00462963 </v>
   <v>       0.00462963 </v>
   <v>       0.00462963 </v>
   <v>       0.00462963 </v>
   <v>       0.00462963 </v>
   <v>       0.00462963 </v>
   <v>       0.00462963 </v>
   <v>       0.00231481 </v>
   <v>       0.00231481 </v>
   <v>       0.00462963 </v>
   <v>       0.00462963 </v>
   <v>       0.00462963 </v>
   <v>       0.00462963 </v>
   <v>       0.00462963 </v>
   <v>       0.00462963 </v>
   <v>       0.00462963 </v>
   <v>       0.00462963 </v>
   <v>       0.00462963 </v>
   <v>       0.00462963 </v>
   <v>       0.00462963 </v>
   <v>       0.00231481 </v>
   <v>       0.00231481 </v>
   <v>       0.00462963 </v>
   <v>       0.00462963 </v>
   <v>       0.00462963 </v>
   <v>       0.00462963 </v>
   <v>       0.00462963 </v>
   <v>       0.00462963 </v>
   <v>       0.00462963 </v>
   <v>       0.00462963 </v>
   <v>       0.00462963 </v>
   <v>       0.00462963 </v>
   <v>       0.00462963 </v>
   <v>       0.00231481 </v>
   <v>       0.00115741 </v>
   <v>       0.00231481 </v>
   <v>       0.00231481 </v>
   <v>       0.00231481 </v>
   <v>       0.00231481 </v>
   <v>       0.00231481 </v>
   <v>       0.00231481 </v>
   <v>       0.00231481 </v>
   <v>       0.00231481 </v>
   <v>       0.00231481 </v>
   <v>       0.00231481 </v>
   <v>       0.00231481 </v>
   <v>       0.00115741 </v>
  </varray>
 </kpoints>
 <parameters>
  <separator name="general" >
   <i type="string" name="SYSTEM">gr</i>
   <i type="logical" name="LCOMPAT"> F  </i>
  </separator>
  <separator name="electronic" >
   <i type="string" name="PREC">accura</i>
   <i name="ENMAX">   2000.00000000</i>
   <i name="ENAUG">    644.87300000</i>
   <i name="EDIFF">      0.00000000</i>
   <i type="int" name="IALGO">    68</i>
   <i type="int" name="IWAVPR">    11</i>
   <i type="int" name="NBANDS">    12</i>
   <i name="NELECT">     16.00000000</i>
   <i type="int" name="TURBO">     0</i>
   <i type="int" name="IRESTART">     0</i>
   <i type="int" name="NREBOOT">     0</i>
   <i type="int" name="NMIN">     0</i>
   <i name="EREF">      0.00000000</i>
   <separator name="electronic smearing" >
    <i type="int" name="ISMEAR">     0</i>
    <i name="SIGMA">      0.05000000</i>
    <i name="KSPACING">      0.50000000</i>
    <i type="logical" name="KGAMMA"> T  </i>
   </separator>
   <separator name="electronic projectors" >
    <i type="logical" name="LREAL"> F  </i>
    <v name="ROPT">      0.00000000</v>
    <i type="int" name="LMAXPAW">  -100</i>
    <i type="int" name="LMAXMIX">     2</i>
    <i type="logical" name="NLSPLINE"> F  </i>
   </separator>
   <separator name="electronic startup" >
    <i type="int" name="ISTART">     0</i>
    <i type="int" name="ICHARG">     2</i>
    <i type="int" name="INIWAV">     1</i>
   </separator>
   <separator name="electronic spin" >
    <i type="int" name="ISPIN">     1</i>
    <i type="logical" name="LNONCOLLINEAR"> F  </i>
    <v name="MAGMOM">      1.00000000      1.00000000      1.00000000      1.00000000</v>
    <i name="NUPDOWN">     -1.00000000</i>
    <i type="logical" name="LSORBIT"> F  </i>
    <v name="SAXIS">      0.00000000      0.00000000      1.00000000</v>
    <i type="logical" name="LSPIRAL"> F  </i>
    <v name="QSPIRAL">      0.00000000      0.00000000      0.00000000</v>
    <i type="logical" name="LZEROZ"> F  </i>
   </separator>
   <separator name="electronic exchange-correlation" >
    <i type="logical" name="LASPH"> F  </i>
    <i type="logical" name="LMETAGGA"> F  </i>
   </separator>
   <separator name="electronic convergence" >
    <i type="int" name="NELM">   100</i>
    <i type="int" name="NELMDL">    -3</i>
    <i type="int" name="NELMIN">     5</i>
    <i name="ENINI">   2000.00000000</i>
    <separator name="electronic convergence detail" >
     <i type="logical" name="LDIAG"> T  </i>
     <i type="logical" name="LSUBROT"> F  </i>
     <i name="WEIMIN">      0.00100000</i>
     <i name="EBREAK">      0.00000000</i>
     <i name="DEPER">      0.30000000</i>
     <i type="int" name="NRMM">     4</i>
     <i name="TIME">      0.40000000</i>
    </separator>
   </separator>
   <separator name="electronic mixer" >
    <i name="AMIX">      0.40000000</i>
    <i name="BMIX">      1.00000000</i>
    <i name="AMIN">      0.10000000</i>
    <i name="AMIX_MAG">      1.60000000</i>
    <i name="BMIX_MAG">      1.00000000</i>
    <separator name="electronic mixer details" >
     <i type="int" name="IMIX">     4</i>
     <i type="int" name="MAXMIX">   -45</i>
     <i name="WC">    100.00000000</i>
     <i type="int" name="INIMIX">     1</i>
     <i type="int" name="MIXPRE">     1</i>
     <i type="int" name="MREMOVE">     5</i>
    </separator>
   </separator>
   <separator name="electronic dipolcorrection" >
    <i type="logical" name="LDIPOL"> F  </i>
    <i type="logical" name="LMONO"> F  </i>
    <i type="int" name="IDIPOL">     0</i>
    <i name="EPSILON">      1.00000000</i>
    <v name="DIPOL">   -100.00000000   -100.00000000   -100.00000000</v>
    <i name="EFIELD">      0.00000000</i>
   </separator>
  </separator>
  <separator name="grids" >
   <i type="int" name="NGX">    64</i>
   <i type="int" name="NGY">    40</i>
   <i type="int" name="NGZ">   288</i>
   <i type="int" name="NGXF">   128</i>
   <i type="int" name="NGYF">    80</i>
   <i type="int" name="NGZF">   576</i>
   <i type="logical" name="ADDGRID"> F  </i>
  </separator>
  <separator name="ionic" >
   <i type="int" name="NSW">   400</i>
   <i type="int" name="IBRION">     1</i>
   <i type="int" name="ISIF">     2</i>
   <i name="PSTRESS">      0.00000000</i>
   <i name="EDIFFG">     -0.00000100</i>
   <i type="int" name="NFREE">     0</i>
   <i name="POTIM">      0.50000000</i>
   <i name="SMASS">     -3.00000000</i>
   <i name="SCALEE">      1.00000000</i>
  </separator>
  <separator name="ionic md" >
   <i name="TEBEG">      0.00010000</i>
   <i name="TEEND">      0.00010000</i>
   <i type="int" name="NBLOCK">     1</i>
   <i type="int" name="KBLOCK">   400</i>
   <i type="int" name="NPACO">   256</i>
   <i name="APACO">     16.00000000</i>
  </separator>
  <separator name="symmetry" >
   <i type="int" name="ISYM">     2</i>
   <i name="SYMPREC">      0.00001000</i>
  </separator>
  <separator name="dos" >
   <i type="logical" name="LORBIT"> F  </i>
   <v name="RWIGS">     -1.00000000</v>
   <i type="int" name="NEDOS">   301</i>
   <i name="EMIN">     10.00000000</i>
   <i name="EMAX">    -10.00000000</i>
   <i name="EFERMI">      0.00000000</i>
  </separator>
  <separator name="writing" >
   <i type="int" name="NWRITE">     2</i>
   <i type="logical" name="LWAVE"> F  </i>
   <i type="logical" name="LCHARG"> F  </i>
   <i type="logical" name="LPARD"> F  </i>
   <i type="logical" name="LVTOT"> F  </i>
   <i type="logical" name="LVHAR"> F  </i>
   <i type="logical" name="LELF"> F  </i>
   <i type="logical" name="LOPTICS"> F  </i>
   <v name="STM">      0.00000000      0.00000000      0.00000000      0.00000000      0.00000000      0.00000000      0.00000000</v>
  </separator>
  <separator name="performance" >
   <i type="int" name="NPAR">     4</i>
   <i type="int" name="NSIM">     4</i>
   <i type="int" name="NBLK">    -1</i>
   <i type="logical" name="LPLANE"> T  </i>
   <i type="logical" name="LSCALAPACK"> F  </i>
   <i type="logical" name="LSCAAWARE"> F  </i>
   <i type="logical" name="LSCALU"> F  </i>
   <i type="logical" name="LASYNC"> F  </i>
   <i type="logical" name="LORBITALREAL"> F  </i>
  </separator>
  <separator name="miscellaneous" >
   <i type="int" name="IDIOT">     3</i>
   <i type="logical" name="LMUSIC"> F  </i>
   <v name="POMASS">     12.01100000</v>
   <v name="DARWINR">      0.00000000</v>
   <v name="DARWINV">      1.00000000</v>
   <i type="logical" name="LCORR"> T  </i>
  </separator>
  <i type="logical" name="GGA_COMPAT"> T  </i>
  <i type="logical" name="LBERRY"> F  </i>
  <i type="int" name="ICORELEVEL">     0</i>
  <i type="logical" name="LDAU"> F  </i>
  <i type="int" name="I_CONSTRAINED_M">     0</i>
  <separator name="electronic exchange-correlation" >
   <i type="string" name="GGA">--</i>
   <i type="int" name="VOSKOWN">     0</i>
   <i type="logical" name="LHFCALC"> F  </i>
   <i type="string" name="PRECFOCK"></i>
   <i type="logical" name="LSYMGRAD"> F  </i>
   <i type="logical" name="LHFONE"> F  </i>
   <i type="logical" name="LRHFCALC"> F  </i>
   <i type="logical" name="LTHOMAS"> F  </i>
   <i type="logical" name="LMODELHF"> F  </i>
   <i name="ENCUT4O">     -1.00000000</i>
   <i type="int" name="EXXOEP">     0</i>
   <i type="int" name="FOURORBIT">     0</i>
   <i name="AEXX">      0.00000000</i>
   <i name="HFALPHA">      0.00000000</i>
   <i name="MCALPHA">      0.00000000</i>
   <i name="ALDAX">      1.00000000</i>
   <i name="AGGAX">      1.00000000</i>
   <i name="ALDAC">      1.00000000</i>
   <i name="AGGAC">      1.00000000</i>
   <i type="int" name="NKREDX">     1</i>
   <i type="int" name="NKREDY">     1</i>
   <i type="int" name="NKREDZ">     1</i>
   <i type="logical" name="SHIFTRED"> F  </i>
   <i type="logical" name="ODDONLY"> F  </i>
   <i type="logical" name="EVENONLY"> F  </i>
   <i type="int" name="LMAXFOCK">     0</i>
   <i type="int" name="NMAXFOCKAE">     0</i>
   <i type="logical" name="LFOCKAEDFT"> F  </i>
   <i name="HFSCREEN">      0.00000000</i>
   <i name="HFSCREENC">      0.00000000</i>
   <i type="int" name="NBANDSGWLOW">     0</i>
  </separator>
  <separator name="vdW DFT" >
   <i type="logical" name="LUSE_VDW"> F  </i>
   <i name="Zab_VDW">     -0.84910000</i>
   <i name="PARAM1">      0.12340000</i>
   <i name="PARAM2">      1.00000000</i>
   <i name="PARAM3">      0.00000000</i>
  </separator>
  <separator name="model GW" >
   <i type="int" name="MODEL_GW">     0</i>
   <i name="MODEL_EPS0">     31.62568521</i>
   <i name="MODEL_ALPHA">      1.00000000</i>
  </separator>
  <separator name="linear response parameters" >
   <i type="logical" name="LEPSILON"> F  </i>
   <i type="logical" name="LRPA"> F  </i>
   <i type="logical" name="LNABLA"> F  </i>
   <i type="logical" name="LVEL"> F  </i>
   <i type="int" name="KINTER">     0</i>
   <i name="CSHIFT">      0.10000000</i>
   <i name="OMEGAMAX">     -1.00000000</i>
   <i name="DEG_THRESHOLD">      0.00200000</i>
  </separator>
  <separator name="orbital magnetization" >
   <i type="logical" name="NUCIND"> F  </i>
   <v name="MAGPOS">      0.00000000      0.00000000      0.00000000</v>
   <i type="logical" name="LNICSALL"> T  </i>
   <i type="logical" name="ORBITALMAG"> F  </i>
   <i type="logical" name="LMAGBLOCH"> F  </i>
   <i type="logical" name="LCHIMAG"> F  </i>
   <i type="logical" name="LGAUGE"> T  </i>
   <i type="int" name="MAGATOM">     0</i>
   <v name="MAGDIPOL">      0.00000000      0.00000000      0.00000000</v>
   <v name="AVECCONST">      0.00000000      0.00000000      0.00000000</v>
  </separator>
  <separator name="response functions" >
   <i type="logical" name="LADDER"> F  </i>
   <i type="logical" name="LFXC"> F  </i>
   <i type="logical" name="LHARTREE"> T  </i>
   <i type="int" name="IBSE">     0</i>
   <i type="logical" name="LTCTE"> F  </i>
   <i type="logical" name="LTETE"> F  </i>
   <i type="logical" name="LTRIPLET"> F  </i>
   <i type="logical" name="LFXCEPS"> F  </i>
   <i type="logical" name="LFXHEG"> F  </i>
   <i type="logical" name="L2ORDER"> F  </i>
   <i type="logical" name="LUSEW"> F  </i>
   <i name="ENCUTGW">     -2.00000000</i>
   <i name="ENCUTGWSOFT">     -2.00000000</i>
   <i name="ENCUTLF">     -1.00000000</i>
   <i type="int" name="LMAXMP2">    -1</i>
   <i name="SCISSOR">      0.00000000</i>
   <i type="int" name="NOMEGA">     0</i>
   <i type="int" name="NOMEGAR">     0</i>
   <i type="int" name="NBANDSGW">    -1</i>
   <i type="int" name="NBANDSO">    -1</i>
   <i type="int" name="NBANDSV">    -1</i>
   <i type="int" name="NELM">   100</i>
   <i type="int" name="DIM">     3</i>
   <i type="int" name="ANTIRES">     0</i>
   <i name="OMEGAMAX">    -30.00000000</i>
   <i name="OMEGAMIN">    -30.00000000</i>
   <i name="OMEGATL">   -200.00000000</i>
   <i type="int" name="OMEGAGRID">     0</i>
   <i name="CSHIFT">     -0.10000000</i>
   <i type="logical" name="SELFENERGY"> F  </i>
   <i type="logical" name="LSPECTRAL"> F  </i>
   <i type="logical" name="ODDONLYGW"> F  </i>
   <i type="logical" name="EVENONLYGW"> F  </i>
   <i type="int" name="NKREDLFX">     1</i>
   <i type="int" name="NKREDLFY">     1</i>
   <i type="int" name="NKREDLFZ">     1</i>
   <i type="int" name="MAXMEM">  1800</i>
   <i type="int" name="TELESCOPE">     0</i>
   <i type="int" name="TAUPAR">     1</i>
  </separator>
  <separator name="External order field" >
   <i name="OFIELD_KAPPA">      0.00000000</i>
   <v name="OFIELD_K">      0.00000000      0.00000000      0.00000000</v>
   <i name="OFIELD_Q6_NEAR">      0.00000000</i>
   <i name="OFIELD_Q6_FAR">      0.00000000</i>
   <i name="OFIELD_A">      0.00000000</i>
  </separator>
 </parameters>
 <atominfo>
  <atoms>       4 </atoms>
  <types>       1 </types>
  <array name="atoms" >
   <dimension dim="1">ion</dimension>
   <field type="string">element</field>
   <field type="int">atomtype</field>
   <set>
    <rc><c>C </c><c>   1</c></rc>
    <rc><c>C </c><c>   1</c></rc>
    <rc><c>C </c><c>   1</c></rc>
    <rc><c>C </c><c>   1</c></rc>
   </set>
  </array>
  <array name="atomtypes" >
   <dimension dim="1">type</dimension>
   <field type="int">atomspertype</field>
   <field type="string">element</field>
   <field>mass</field>
   <field>valence</field>
   <field type="string">pseudopotential</field>
   <set>
    <rc><c>   4</c><c>C </c><c>     12.01100000</c><c>      4.00000000</c><c> PAW_PBE C 08Apr2002                    </c></rc>
   </set>
  </array>
 </atominfo>
 <structure name="initialpos" >
  <crystal>
   <varray name="basis" >
    <v>       4.25510829       0.00000000       0.00000000 </v>
    <v>       0.00000000       2.52923157       0.00000000 </v>
    <v>       0.00000000       0.00000000      19.59067830 </v>
   </varray>
   <i name="volume">    210.83790140 </i>
   <varray name="rec_basis" >
    <v>       0.23501165       0.00000000       0.00000000 </v>
    <v>       0.00000000       0.39537700       0.00000000 </v>
    <v>       0.00000000       0.00000000       0.05104468 </v>
   </varray>
  </crystal>
  <varray name="positions" >
   <v>       0.00063729       0.00000000       0.00000000 </v>
   <v>       0.16602938       0.50000000       0.00000000 </v>
   <v>       0.50063729       0.50000000       0.00000000 </v>
   <v>       0.66602938       0.00000000       0.00000000 </v>
  </varray>
 </structure>
 <calculation>
  <scstep>
   <time name="dav">  324.41  325.76</time>
   <time name="total">  327.27  328.69</time>
   <energy>
    <i name="alphaZ">      6.18334092 </i>
    <i name="ewald">   2449.56135550 </i>
    <i name="hartreedc">  -2879.05498764 </i>
    <i name="XCdc">     54.81718809 </i>
    <i name="pawpsdc">    151.32577238 </i>
    <i name="pawaedc">   -155.92769107 </i>
    <i name="eentropy">     -0.00139735 </i>
    <i name="bandstr">    -28.87726302 </i>
    <i name="atom">    588.62352690 </i>
    <i name="e_fr_energy">    186.64984472 </i>
    <i name="e_wo_entrp">    186.65124207 </i>
    <i name="e_0_energy">    186.65054340 </i>
   </energy>
  </scstep>
  <scstep>
   <time name="dav">  492.53  493.69</time>
   <time name="total">  492.54  493.70</time>
   <energy>
    <i name="e_fr_energy">     -9.52881537 </i>
    <i name="e_wo_entrp">     -9.52847549 </i>
    <i name="e_0_energy">     -9.52864543 </i>
   </energy>
  </scstep>
  <scstep>
   <time name="dav">  375.63  375.75</time>
   <time name="total">  410.97  411.15</time>
   <energy>
    <i name="e_fr_energy">    -38.10137572 </i>
    <i name="e_wo_entrp">    -38.10137568 </i>
    <i name="e_0_energy">    -38.10137570 </i>
   </energy>
  </scstep>
  <scstep>
   <time name="diag">   90.51   90.54</time>
   <time name="diis">  380.85  381.12</time>
   <time name="orth">    3.08    3.08</time>
   <time name="total">  512.57  512.91</time>
   <energy>
    <i name="e_fr_energy">    -37.57166765 </i>
    <i name="e_wo_entrp">    -37.57166765 </i>
    <i name="e_0_energy">    -37.57166765 </i>
   </energy>
  </scstep>
  <scstep>
   <time name="diag">   90.46   90.49</time>
   <time name="diis">  380.19  380.27</time>
   <time name="orth">    3.11    3.11</time>
   <time name="total">  511.85  512.01</time>
   <energy>
    <i name="e_fr_energy">    -36.86660064 </i>
    <i name="e_wo_entrp">    -36.86660063 </i>
    <i name="e_0_energy">    -36.86660063 </i>
   </energy>
  </scstep>
  <scstep>
   <time name="diag">   90.53   90.57</time>
   <time name="diis">  414.57  415.21</time>
   <time name="orth">    3.08    3.08</time>
   <time name="total">  546.10  547.76</time>
   <energy>
    <i name="e_fr_energy">    -36.86877898 </i>
    <i name="e_wo_entrp">    -36.86877896 </i>
    <i name="e_0_energy">    -36.86877897 </i>
   </energy>
  </scstep>
  <scstep>
   <time name="diag">   90.48   90.52</time>
   <time name="diis">  374.61  374.72</time>
   <time name="orth">    3.10    3.10</time>
   <time name="total">  506.28  506.58</time>
   <energy>
    <i name="e_fr_energy">    -36.85988153 </i>
    <i name="e_wo_entrp">    -36.85988152 </i>
    <i name="e_0_energy">    -36.85988152 </i>
   </energy>
  </scstep>
  <scstep>
   <time name="diag">   90.49   90.51</time>
   <time name="diis">  379.97  380.09</time>
   <time name="orth">    3.10    3.10</time>
   <time name="total">  511.67  511.84</time>
   <energy>
    <i name="e_fr_energy">    -36.85497853 </i>
    <i name="e_wo_entrp">    -36.85497852 </i>
    <i name="e_0_energy">    -36.85497852 </i>
   </energy>
  </scstep>
  <scstep>
   <time name="diag">   90.57   90.58</time>
   <time name="diis">  365.61  365.69</time>
   <time name="orth">    3.08    3.08</time>
   <time name="total">  497.40  497.55</time>
   <energy>
    <i name="e_fr_energy">    -36.85488775 </i>
    <i name="e_wo_entrp">    -36.85488774 </i>
    <i name="e_0_energy">    -36.85488774 </i>
   </energy>
  </scstep>
  <scstep>
   <time name="diag">   90.03   90.56</time>
   <time name="diis">  363.71  366.96</time>
   <time name="orth">    3.08    3.08</time>
   <time name="total">  494.39  498.73</time>
   <energy>
    <i name="e_fr_energy">    -36.85478955 </i>
    <i name="e_wo_entrp">    -36.85478954 </i>
    <i name="e_0_energy">    -36.85478954 </i>
   </energy>
  </scstep>
  <scstep>
   <time name="diag">   90.05   90.54</time>
   <time name="diis">  365.03  368.50</time>
   <time name="orth">    3.08    3.08</time>
   <time name="total">  495.78  500.31</time>
   <energy>
    <i name="e_fr_energy">    -36.85708060 </i>
    <i name="e_wo_entrp">    -36.85708059 </i>
    <i name="e_0_energy">    -36.85708060 </i>
   </energy>
  </scstep>
  <scstep>
   <time name="diag">   89.47   90.54</time>
   <time name="diis">  365.79  368.35</time>
   <time name="orth">    3.08    3.08</time>
   <time name="total">  496.31  500.17</time>
   <energy>
    <i name="e_fr_energy">    -36.85756892 </i>
    <i name="e_wo_entrp">    -36.85756890 </i>
    <i name="e_0_energy">    -36.85756891 </i>
   </energy>
  </scstep>
  <scstep>
   <time name="diag">   89.61   90.48</time>
   <time name="diis">  369.94  374.52</time>
   <time name="orth">    3.07    3.10</time>
   <time name="total">  500.46  506.27</time>
   <energy>
    <i name="e_fr_energy">    -36.85782002 </i>
    <i name="e_wo_entrp">    -36.85782000 </i>
    <i name="e_0_energy">    -36.85782001 </i>
   </energy>
  </scstep>
  <scstep>
   <time name="diag">   90.02   90.42</time>
   <time name="diis">  365.55  369.94</time>
   <time name="orth">    3.08    3.10</time>
   <time name="total">  496.41  501.71</time>
   <energy>
    <i name="e_fr_energy">    -36.85790100 </i>
    <i name="e_wo_entrp">    -36.85790099 </i>
    <i name="e_0_energy">    -36.85790100 </i>
   </energy>
  </scstep>
  <scstep>
   <time name="diag">   89.58   90.43</time>
   <time name="diis">  368.17  368.50</time>
   <time name="orth">    3.09    3.09</time>
   <time name="total">  498.94  500.21</time>
   <energy>
    <i name="e_fr_energy">    -36.85791279 </i>
    <i name="e_wo_entrp">    -36.85791278 </i>
    <i name="e_0_energy">    -36.85791279 </i>
   </energy>
  </scstep>
  <scstep>
   <time name="diag">   90.28   90.42</time>
   <time name="diis">  366.03  366.43</time>
   <time name="orth">    3.09    3.10</time>
   <time name="total">  497.39  498.11</time>
   <energy>
    <i name="e_fr_energy">    -36.85792605 </i>
    <i name="e_wo_entrp">    -36.85792604 </i>
    <i name="e_0_energy">    -36.85792605 </i>
   </energy>
  </scstep>
  <scstep>
   <time name="diag">   89.64   90.40</time>
   <time name="diis">  371.67  375.90</time>
   <time name="orth">    3.07    3.09</time>
   <time name="total">  502.01  507.73</time>
   <energy>
    <i name="e_fr_energy">    -36.85793206 </i>
    <i name="e_wo_entrp">    -36.85793204 </i>
    <i name="e_0_energy">    -36.85793205 </i>
   </energy>
  </scstep>
  <scstep>
   <time name="diag">   89.66   90.45</time>
   <time name="diis">  362.25  365.48</time>
   <time name="orth">    3.09    3.09</time>
   <time name="total">  492.49  496.88</time>
   <energy>
    <i name="e_fr_energy">    -36.85793310 </i>
    <i name="e_wo_entrp">    -36.85793309 </i>
    <i name="e_0_energy">    -36.85793310 </i>
   </energy>
  </scstep>
  <scstep>
   <time name="diag">   89.66   90.37</time>
   <time name="diis">  363.85  367.11</time>
   <time name="orth">    3.07    3.07</time>
   <time name="total">  494.09  498.68</time>
   <energy>
    <i name="e_fr_energy">    -36.85793383 </i>
    <i name="e_wo_entrp">    -36.85793382 </i>
    <i name="e_0_energy">    -36.85793383 </i>
   </energy>
  </scstep>
  <scstep>
   <time name="diag">   90.19   90.37</time>
   <time name="diis">  283.51  286.27</time>
   <time name="orth">    3.07    3.10</time>
   <time name="total">  413.94  417.37</time>
   <energy>
    <i name="e_fr_energy">    -36.85793388 </i>
    <i name="e_wo_entrp">    -36.85793387 </i>
    <i name="e_0_energy">    -36.85793387 </i>
   </energy>
  </scstep>
  <scstep>
   <time name="diag">   89.66   90.37</time>
   <time name="diis">  276.61  277.23</time>
   <time name="orth">    3.07    3.07</time>
   <time name="total">  406.88  408.31</time>
   <energy>
    <i name="e_fr_energy">    -36.85793389 </i>
    <i name="e_wo_entrp">    -36.85793388 </i>
    <i name="e_0_energy">    -36.85793389 </i>
   </energy>
  </scstep>
  <scstep>
   <time name="diag">   89.97   90.44</time>
   <time name="diis">  249.18  251.82</time>
   <time name="orth">    3.07    3.09</time>
   <time name="total">  379.51  383.04</time>
   <energy>
    <i name="e_fr_energy">    -36.85793389 </i>
    <i name="e_wo_entrp">    -36.85793388 </i>
    <i name="e_0_energy">    -36.85793389 </i>
   </energy>
  </scstep>
  <scstep>
   <time name="diag">   90.01   90.35</time>
   <time name="diis">  239.69  241.18</time>
   <time name="orth">    3.07    3.09</time>
   <time name="total">  370.28  372.53</time>
   <energy>
    <i name="e_fr_energy">    -36.85793389 </i>
    <i name="e_wo_entrp">    -36.85793388 </i>
    <i name="e_0_energy">    -36.85793389 </i>
   </energy>
  </scstep>
  <scstep>
   <time name="diag">   89.84   90.35</time>
   <time name="diis">  229.44  229.92</time>
   <time name="orth">    3.09    3.09</time>
   <time name="total">  325.15  326.17</time>
   <energy>
    <i name="alphaZ">      6.18334092 </i>
    <i name="ewald">   2449.56135550 </i>
    <i name="hartreedc">  -2943.84663637 </i>
    <i name="XCdc">     57.14174770 </i>
    <i name="pawpsdc">    268.82185707 </i>
    <i name="pawaedc">   -273.93335974 </i>
    <i name="eentropy">     -0.00000001 </i>
    <i name="bandstr">   -189.40976587 </i>
    <i name="atom">    588.62352690 </i>
    <i name="e_fr_energy">    -36.85793389 </i>
    <i name="e_wo_entrp">    -36.85793388 </i>
    <i name="e_0_energy">    -36.85793389 </i>
   </energy>
  </scstep>
  <structure>
   <crystal>
    <varray name="basis" >
     <v>       4.25510829       0.00000000       0.00000000 </v>
     <v>       0.00000000       2.52923157       0.00000000 </v>
     <v>       0.00000000       0.00000000      19.59067830 </v>
    </varray>
    <i name="volume">    210.83790140 </i>
    <varray name="rec_basis" >
     <v>       0.23501165       0.00000000       0.00000000 </v>
     <v>       0.00000000       0.39537700       0.00000000 </v>
     <v>       0.00000000       0.00000000       0.05104468 </v>
    </varray>
   </crystal>
   <varray name="positions" >
    <v>       0.00063729       0.00000000       0.00000000 </v>
    <v>       0.16602938       0.50000000       0.00000000 </v>
    <v>       0.50063729       0.50000000       0.00000000 </v>
    <v>       0.66602938       0.00000000       0.00000000 </v>
   </varray>
  </structure>
  <varray name="forces" >
   <v>       0.00051431       0.00000000      -0.00000000 </v>
   <v>      -0.00051431      -0.00000000       0.00000000 </v>
   <v>       0.00051431      -0.00000000      -0.00000000 </v>
   <v>      -0.00051431       0.00000000       0.00000000 </v>
  </varray>
  <varray name="stress" >
   <v>       0.00311122       0.00000000       0.00000000 </v>
   <v>       0.00000000     -41.06282538       0.00000000 </v>
   <v>       0.00000000       0.00000000      -0.01014177 </v>
  </varray>
  <energy>
   <i name="e_fr_energy">    -36.85793389 </i>
   <i name="e_wo_entrp">    -36.85793389 </i>
   <i name="e_0_energy">     -0.00000001 </i>
  </energy>
  <time name="totalsc">11287.8011345.85</time>
 </calculation>
 <calculation>
  <scstep>
   <time name="dav">  333.44  335.11</time>
   <time name="total">  371.02  372.78</time>
   <energy>
    <i name="alphaZ">      6.18334092 </i>
    <i name="ewald">   2449.56082771 </i>
    <i name="hartreedc">  -2943.84641804 </i>
    <i name="XCdc">     57.14173304 </i>
    <i name="pawpsdc">    268.82186719 </i>
    <i name="pawaedc">   -273.93337001 </i>
    <i name="eentropy">     -0.00000001 </i>
    <i name="bandstr">   -189.40944152 </i>
    <i name="atom">    588.62352690 </i>
    <i name="e_fr_energy">    -36.85793382 </i>
    <i name="e_wo_entrp">    -36.85793380 </i>
    <i name="e_0_energy">    -36.85793381 </i>
   </energy>
  </scstep>
  <scstep>
   <time name="diag">   89.95   90.47</time>
   <time name="diis">  364.56  367.77</time>
   <time name="orth">    3.08    3.11</time>
   <time name="total">  495.12  499.12</time>
   <energy>
    <i name="e_fr_energy">    -36.85793382 </i>
    <i name="e_wo_entrp">    -36.85793381 </i>
    <i name="e_0_energy">    -36.85793381 </i>
   </energy>
  </scstep>
  <scstep>
   <time name="diag">   89.87   90.48</time>
   <time name="diis">  367.81  371.20</time>
   <time name="orth">    3.08    3.08</time>
   <time name="total">  498.26  502.72</time>
   <energy>
    <i name="e_fr_energy">    -36.85793381 </i>
    <i name="e_wo_entrp">    -36.85793380 </i>
    <i name="e_0_energy">    -36.85793381 </i>
   </energy>
  </scstep>
  <scstep>
   <time name="diag">   89.88   90.46</time>
   <time name="diis">  360.30  363.51</time>
   <time name="orth">    3.08    3.08</time>
   <time name="total">  490.32  495.21</time>
   <energy>
    <i name="e_fr_energy">    -36.85793381 </i>
    <i name="e_wo_entrp">    -36.85793380 </i>
    <i name="e_0_energy">    -36.85793381 </i>
   </energy>
  </scstep>
  <scstep>
   <time name="diag">   89.53   90.43</time>
   <time name="diis">  246.00  249.23</time>
   <time name="orth">    3.08    3.08</time>
   <time name="total">  376.38  380.83</time>
   <energy>
    <i name="e_fr_energy">    -36.85793381 </i>
    <i name="e_wo_entrp">    -36.85793380 </i>
    <i name="e_0_energy">    -36.85793380 </i>
   </energy>
  </scstep>
  <scstep>
   <time name="diag">   89.88   90.45</time>
   <time name="diis">  235.90  236.87</time>
   <time name="orth">    3.09    3.10</time>
   <time name="total">  366.54  368.21</time>
   <energy>
    <i name="e_fr_energy">    -36.85793381 </i>
    <i name="e_wo_entrp">    -36.85793380 </i>
    <i name="e_0_energy">    -36.85793380 </i>
   </energy>
  </scstep>
  <scstep>
   <time name="diag">   90.03   90.46</time>
   <time name="diis">  230.08  231.16</time>
   <time name="orth">    3.09    3.09</time>
   <time name="total">  326.01  327.54</time>
   <energy>
    <i name="alphaZ">      6.18334092 </i>
    <i name="ewald">   2449.56082771 </i>
    <i name="hartreedc">  -2943.84621173 </i>
    <i name="XCdc">     57.14172415 </i>
    <i name="pawpsdc">    268.82095375 </i>
    <i name="pawaedc">   -273.93245263 </i>
    <i name="eentropy">     -0.00000001 </i>
    <i name="bandstr">   -189.40964289 </i>
    <i name="atom">    588.62352690 </i>
    <i name="e_fr_energy">    -36.85793381 </i>
    <i name="e_wo_entrp">    -36.85793380 </i>
    <i name="e_0_energy">    -36.85793380 </i>
   </energy>
  </scstep>
  <structure>
   <crystal>
    <varray name="basis" >
     <v>       4.25510829       0.00000000       0.00000000 </v>
     <v>       0.00000000       2.52923157       0.00000000 </v>
     <v>       0.00000000       0.00000000      19.59067830 </v>
    </varray>
    <i name="volume">    210.83790140 </i>
    <varray name="rec_basis" >
     <v>       0.23501165       0.00000000       0.00000000 </v>
     <v>       0.00000000       0.39537700       0.00000000 </v>
     <v>       0.00000000       0.00000000       0.05104468 </v>
    </varray>
   </crystal>
   <varray name="positions" >
    <v>       0.00064312       0.00000000      -0.00000000 </v>
    <v>       0.16602355       0.50000000       0.00000000 </v>
    <v>       0.50064312       0.50000000      -0.00000000 </v>
    <v>       0.66602355       0.00000000       0.00000000 </v>
   </varray>
  </structure>
  <varray name="forces" >
   <v>      -0.00205264       0.00000000       0.00000000 </v>
   <v>       0.00205264      -0.00000000      -0.00000000 </v>
   <v>      -0.00205264      -0.00000000       0.00000000 </v>
   <v>       0.00205264       0.00000000      -0.00000000 </v>
  </varray>
  <varray name="stress" >
   <v>      -0.00706755       0.00000000       0.00000000 </v>
   <v>       0.00000000     -41.05673613       0.00000000 </v>
   <v>       0.00000000       0.00000000      -0.01015893 </v>
  </varray>
  <energy>
   <i name="e_fr_energy">    -36.85793381 </i>
   <i name="e_wo_entrp">    -36.85793380 </i>
   <i name="e_0_energy">     -0.00000001 </i>
  </energy>
  <time name="totalsc"> 3032.56 3055.80</time>
 </calculation>
 <calculation>
  <scstep>
   <time name="dav">  356.72  358.98</time>
   <time name="total">  394.17  396.69</time>
   <energy>
    <i name="alphaZ">      6.18334092 </i>
    <i name="ewald">   2449.56124969 </i>
    <i name="hartreedc">  -2943.84638779 </i>
    <i name="XCdc">     57.14173609 </i>
    <i name="pawpsdc">    268.82095638 </i>
    <i name="pawaedc">   -273.93245522 </i>
    <i name="eentropy">     -0.00000001 </i>
    <i name="bandstr">   -189.40990086 </i>
    <i name="atom">    588.62352690 </i>
    <i name="e_fr_energy">    -36.85793389 </i>
    <i name="e_wo_entrp">    -36.85793388 </i>
    <i name="e_0_energy">    -36.85793389 </i>
   </energy>
  </scstep>
  <scstep>
   <time name="diag">   90.31   90.42</time>
   <time name="diis">  365.98  366.45</time>
   <time name="orth">    3.07    3.07</time>
   <time name="total">  495.67  496.42</time>
   <energy>
    <i name="e_fr_energy">    -36.85793390 </i>
    <i name="e_wo_entrp">    -36.85793388 </i>
    <i name="e_0_energy">    -36.85793389 </i>
   </energy>
  </scstep>
  <scstep>
   <time name="diag">   90.28   90.40</time>
   <time name="diis">  367.63  368.48</time>
   <time name="orth">    3.07    3.09</time>
   <time name="total">  498.23  499.47</time>
   <energy>
    <i name="e_fr_energy">    -36.85793390 </i>
    <i name="e_wo_entrp">    -36.85793388 </i>
    <i name="e_0_energy">    -36.85793389 </i>
   </energy>
  </scstep>
  <scstep>
   <time name="diag">   89.88   90.42</time>
   <time name="diis">  333.32  337.18</time>
   <time name="orth">    3.07    3.09</time>
   <time name="total">  462.82  467.59</time>
   <energy>
    <i name="e_fr_energy">    -36.85793390 </i>
    <i name="e_wo_entrp">    -36.85793388 </i>
    <i name="e_0_energy">    -36.85793389 </i>
   </energy>
  </scstep>
  <scstep>
   <time name="diag">   89.77   90.41</time>
   <time name="diis">  239.29  239.69</time>
   <time name="orth">    3.08    3.09</time>
   <time name="total">  334.85  335.98</time>
   <energy>
    <i name="alphaZ">      6.18334092 </i>
    <i name="ewald">   2449.56124969 </i>
    <i name="hartreedc">  -2943.84653800 </i>
    <i name="XCdc">     57.14174280 </i>
    <i name="pawpsdc">    268.82166717 </i>
    <i name="pawaedc">   -273.93316902 </i>
    <i name="eentropy">     -0.00000001 </i>
    <i name="bandstr">   -189.40975434 </i>
    <i name="atom">    588.62352690 </i>
    <i name="e_fr_energy">    -36.85793390 </i>
    <i name="e_wo_entrp">    -36.85793388 </i>
    <i name="e_0_energy">    -36.85793389 </i>
   </energy>
  </scstep>
  <structure>
   <crystal>
    <varray name="basis" >
     <v>       4.25510829       0.00000000       0.00000000 </v>
     <v>       0.00000000       2.52923157       0.00000000 </v>
     <v>       0.00000000       0.00000000      19.59067830 </v>
    </varray>
    <i name="volume">    210.83790140 </i>
    <varray name="rec_basis" >
     <v>       0.23501165       0.00000000       0.00000000 </v>
     <v>       0.00000000       0.39537700       0.00000000 </v>
     <v>       0.00000000       0.00000000       0.05104468 </v>
    </varray>
   </crystal>
   <varray name="positions" >
    <v>       0.00063846       0.00000000      -0.00000000 </v>
    <v>       0.16602821       0.50000000       0.00000000 </v>
    <v>       0.50063846       0.50000000      -0.00000000 </v>
    <v>       0.66602821       0.00000000       0.00000000 </v>
   </varray>
  </structure>
  <varray name="forces" >
   <v>       0.00000843       0.00000000      -0.00000000 </v>
   <v>      -0.00000843      -0.00000000       0.00000000 </v>
   <v>       0.00000843      -0.00000000      -0.00000000 </v>
   <v>      -0.00000843       0.00000000       0.00000000 </v>
  </varray>
  <varray name="stress" >
   <v>       0.00103210       0.00000000       0.00000000 </v>
   <v>       0.00000000     -41.06154705       0.00000000 </v>
   <v>       0.00000000       0.00000000      -0.01012922 </v>
  </varray>
  <energy>
   <i name="e_fr_energy">    -36.85793390 </i>
   <i name="e_wo_entrp">    -36.85793389 </i>
   <i name="e_0_energy">     -0.00000001 </i>
  </energy>
  <time name="totalsc"> 2293.99 2304.76</time>
 </calculation>
 <calculation>
  <scstep>
   <time name="dav">  285.81  286.34</time>
   <time name="total">  322.64  323.22</time>
   <energy>
    <i name="alphaZ">      6.18334092 </i>
    <i name="ewald">   2449.56124796 </i>
    <i name="hartreedc">  -2943.84654181 </i>
    <i name="XCdc">     57.14174300 </i>
    <i name="pawpsdc">    268.82168582 </i>
    <i name="pawaedc">   -273.93318779 </i>
    <i name="eentropy">     -0.00000001 </i>
    <i name="bandstr">   -189.40974889 </i>
    <i name="atom">    588.62352690 </i>
    <i name="e_fr_energy">    -36.85793390 </i>
    <i name="e_wo_entrp">    -36.85793388 </i>
    <i name="e_0_energy">    -36.85793389 </i>
   </energy>
  </scstep>
  <scstep>
   <time name="diag">   89.89   90.44</time>
   <time name="diis">  222.18  222.73</time>
   <time name="orth">    3.08    3.08</time>
   <time name="total">  352.32  353.50</time>
   <energy>
    <i name="e_fr_energy">    -36.85793390 </i>
    <i name="e_wo_entrp">    -36.85793388 </i>
    <i name="e_0_energy">    -36.85793389 </i>
   </energy>
  </scstep>
  <scstep>
   <time name="diag">   89.67   90.47</time>
   <time name="diis">  211.46  213.81</time>
   <time name="orth">    3.07    3.08</time>
   <time name="total">  341.59  345.02</time>
   <energy>
    <i name="e_fr_energy">    -36.85793390 </i>
    <i name="e_wo_entrp">    -36.85793388 </i>
    <i name="e_0_energy">    -36.85793389 </i>
   </energy>
  </scstep>
  <scstep>
   <time name="diag">   90.37   90.42</time>
   <time name="diis">  205.04  205.11</time>
   <time name="orth">    3.08    3.09</time>
   <time name="total">  334.76  334.91</time>
   <energy>
    <i name="e_fr_energy">    -36.85793390 </i>
    <i name="e_wo_entrp">    -36.85793388 </i>
    <i name="e_0_energy">    -36.85793389 </i>
   </energy>
  </scstep>
  <scstep>
   <time name="diag">   90.37   90.40</time>
   <time name="diis">  197.04  197.24</time>
   <time name="orth">    3.07    3.07</time>
   <time name="total">  327.19  327.46</time>
   <energy>
    <i name="e_fr_energy">    -36.85793390 </i>
    <i name="e_wo_entrp">    -36.85793388 </i>
    <i name="e_0_energy">    -36.85793389 </i>
   </energy>
  </scstep>
  <scstep>
   <time name="diag">   90.35   90.41</time>
   <time name="diis">  188.95  189.16</time>
   <time name="orth">    3.07    3.07</time>
   <time name="total">  319.70  320.04</time>
   <energy>
    <i name="e_fr_energy">    -36.85793390 </i>
    <i name="e_wo_entrp">    -36.85793388 </i>
    <i name="e_0_energy">    -36.85793389 </i>
   </energy>
  </scstep>
  <scstep>
   <time name="diag">   90.32   90.38</time>
   <time name="diis">  184.55  184.61</time>
   <time name="orth">    3.07    3.07</time>
   <time name="total">  316.15  316.28</time>
   <energy>
    <i name="e_fr_energy">    -36.85793390 </i>
    <i name="e_wo_entrp">    -36.85793388 </i>
    <i name="e_0_energy">    -36.85793389 </i>
   </energy>
  </scstep>
  <scstep>
   <time name="diag">   90.34   90.37</time>
   <time name="diis">  179.71  179.81</time>
   <time name="orth">    3.09    3.09</time>
   <time name="total">  310.66  310.82</time>
   <energy>
    <i name="e_fr_energy">    -36.85793390 </i>
    <i name="e_wo_entrp">    -36.85793388 </i>
    <i name="e_0_energy">    -36.85793389 </i>
   </energy>
  </scstep>
  <scstep>
   <time name="diag">   90.37   90.41</time>
   <time name="diis">  173.73  173.79</time>
   <time name="orth">    3.08    3.08</time>
   <time name="total">  270.02  270.12</time>
   <energy>
    <i name="alphaZ">      6.18334092 </i>
    <i name="ewald">   2449.56124796 </i>
    <i name="hartreedc">  -2943.84655471 </i>
    <i name="XCdc">     57.14174321 </i>
    <i name="pawpsdc">    268.82168095 </i>
    <i name="pawaedc">   -273.93318296 </i>
    <i name="eentropy">     -0.00000001 </i>
    <i name="bandstr">   -189.40973616 </i>
    <i name="atom">    588.62352690 </i>
    <i name="e_fr_energy">    -36.85793390 </i>
    <i name="e_wo_entrp">    -36.85793388 </i>
    <i name="e_0_energy">    -36.85793389 </i>
   </energy>
  </scstep>
  <structure>
   <crystal>
    <varray name="basis" >
     <v>       4.25510829       0.00000000       0.00000000 </v>
     <v>       0.00000000       2.52923157       0.00000000 </v>
     <v>       0.00000000       0.00000000      19.59067830 </v>
    </varray>
    <i name="volume">    210.83790140 </i>
    <varray name="rec_basis" >
     <v>       0.23501165       0.00000000       0.00000000 </v>
     <v>       0.00000000       0.39537700       0.00000000 </v>
     <v>       0.00000000       0.00000000       0.05104468 </v>
    </varray>
   </crystal>
   <varray name="positions" >
    <v>       0.00063848       0.00000000      -0.00000000 </v>
    <v>       0.16602819       0.50000000       0.00000000 </v>
    <v>       0.50063848       0.50000000      -0.00000000 </v>
    <v>       0.66602819       0.00000000       0.00000000 </v>
   </varray>
  </structure>
  <varray name="forces" >
   <v>      -0.00001105      -0.00000000       0.00000000 </v>
   <v>       0.00001105      -0.00000000      -0.00000000 </v>
   <v>      -0.00001105      -0.00000000       0.00000000 </v>
   <v>       0.00001105       0.00000000      -0.00000000 </v>
  </varray>
  <varray name="stress" >
   <v>       0.00103288       0.00000000       0.00000000 </v>
   <v>       0.00000000     -41.06155909       0.00000000 </v>
   <v>       0.00000000       0.00000000      -0.01013217 </v>
  </varray>
  <energy>
   <i name="e_fr_energy">    -36.85793390 </i>
   <i name="e_wo_entrp">    -36.85793389 </i>
   <i name="e_0_energy">     -0.00000001 </i>
  </energy>
  <time name="totalsc"> 3003.62 3010.05</time>
 </calculation>
 <calculation>
  <scstep>
   <time name="dav">  281.27  281.42</time>
   <time name="total">  318.44  318.60</time>
   <energy>
    <i name="alphaZ">      6.18334092 </i>
    <i name="ewald">   2449.56124894 </i>
    <i name="hartreedc">  -2943.84655518 </i>
    <i name="XCdc">     57.14174324 </i>
    <i name="pawpsdc">    268.82168097 </i>
    <i name="pawaedc">   -273.93318298 </i>
    <i name="eentropy">     -0.00000001 </i>
    <i name="bandstr">   -189.40973670 </i>
    <i name="atom">    588.62352690 </i>
    <i name="e_fr_energy">    -36.85793390 </i>
    <i name="e_wo_entrp">    -36.85793388 </i>
    <i name="e_0_energy">    -36.85793389 </i>
   </energy>
  </scstep>
  <scstep>
   <time name="diag">   90.37   90.40</time>
   <time name="diis">  163.89  163.93</time>
   <time name="orth">    3.07    3.07</time>
   <time name="total">  294.54  294.62</time>
   <energy>
    <i name="e_fr_energy">    -36.85793390 </i>
    <i name="e_wo_entrp">    -36.85793388 </i>
    <i name="e_0_energy">    -36.85793389 </i>
   </energy>
  </scstep>
  <scstep>
   <time name="diag">   90.38   90.41</time>
   <time name="diis">  162.38  162.42</time>
   <time name="orth">    3.13    3.13</time>
   <time name="total">  292.60  292.71</time>
   <energy>
    <i name="e_fr_energy">    -36.85793390 </i>
    <i name="e_wo_entrp">    -36.85793388 </i>
    <i name="e_0_energy">    -36.85793389 </i>
   </energy>
  </scstep>
  <scstep>
   <time name="diag">   90.36   90.39</time>
   <time name="diis">  159.94  159.99</time>
   <time name="orth">    3.09    3.09</time>
   <time name="total">  290.16  290.25</time>
   <energy>
    <i name="e_fr_energy">    -36.85793390 </i>
    <i name="e_wo_entrp">    -36.85793388 </i>
    <i name="e_0_energy">    -36.85793389 </i>
   </energy>
  </scstep>
  <scstep>
   <time name="diag">   90.37   90.40</time>
   <time name="diis">  159.81  159.99</time>
   <time name="orth">    3.09    3.09</time>
   <time name="total">  256.06  256.31</time>
   <energy>
    <i name="alphaZ">      6.18334092 </i>
    <i name="ewald">   2449.56124894 </i>
    <i name="hartreedc">  -2943.84655466 </i>
    <i name="XCdc">     57.14174322 </i>
    <i name="pawpsdc">    268.82168301 </i>
    <i name="pawaedc">   -273.93318503 </i>
    <i name="eentropy">     -0.00000001 </i>
    <i name="bandstr">   -189.40973720 </i>
    <i name="atom">    588.62352690 </i>
    <i name="e_fr_energy">    -36.85793390 </i>
    <i name="e_wo_entrp">    -36.85793388 </i>
    <i name="e_0_energy">    -36.85793389 </i>
   </energy>
  </scstep>
  <structure>
   <crystal>
    <varray name="basis" >
     <v>       4.25510829       0.00000000       0.00000000 </v>
     <v>       0.00000000       2.52923157       0.00000000 </v>
     <v>       0.00000000       0.00000000      19.59067830 </v>
    </varray>
    <i name="volume">    210.83790140 </i>
    <varray name="rec_basis" >
     <v>       0.23501165       0.00000000       0.00000000 </v>
     <v>       0.00000000       0.39537700       0.00000000 </v>
     <v>       0.00000000       0.00000000       0.05104468 </v>
    </varray>
   </crystal>
   <varray name="positions" >
    <v>       0.00063847       0.00000000      -0.00000000 </v>
    <v>       0.16602820       0.50000000       0.00000000 </v>
    <v>       0.50063847       0.50000000      -0.00000000 </v>
    <v>       0.66602820       0.00000000       0.00000000 </v>
   </varray>
  </structure>
  <varray name="forces" >
   <v>      -0.00000213       0.00000000       0.00000000 </v>
   <v>       0.00000213       0.00000000       0.00000000 </v>
   <v>      -0.00000213       0.00000000       0.00000000 </v>
   <v>       0.00000213      -0.00000000       0.00000000 </v>
  </varray>
  <varray name="stress" >
   <v>       0.00106926       0.00000000       0.00000000 </v>
   <v>       0.00000000     -41.06158966       0.00000000 </v>
   <v>       0.00000000       0.00000000      -0.01013948 </v>
  </varray>
  <energy>
   <i name="e_fr_energy">    -36.85793390 </i>
   <i name="e_wo_entrp">    -36.85793389 </i>
   <i name="e_0_energy">     -0.00000001 </i>
  </energy>
  <time name="totalsc"> 1560.71 1561.45</time>
 </calculation>
 <calculation>
  <scstep>
   <time name="dav">  281.35  281.48</time>
   <time name="total">  319.51  319.65</time>
   <energy>
    <i name="alphaZ">      6.18334092 </i>
    <i name="ewald">   2449.56124917 </i>
    <i name="hartreedc">  -2943.84655473 </i>
    <i name="XCdc">     57.14174322 </i>
    <i name="pawpsdc">    268.82168301 </i>
    <i name="pawaedc">   -273.93318503 </i>
    <i name="eentropy">     -0.00000001 </i>
    <i name="bandstr">   -189.40973737 </i>
    <i name="atom">    588.62352690 </i>
    <i name="e_fr_energy">    -36.85793390 </i>
    <i name="e_wo_entrp">    -36.85793388 </i>
    <i name="e_0_energy">    -36.85793389 </i>
   </energy>
  </scstep>
  <scstep>
   <time name="diag">   90.39   90.42</time>
   <time name="diis">  140.97  141.03</time>
   <time name="orth">    3.09    3.09</time>
   <time name="total">  271.80  271.90</time>
   <energy>
    <i name="e_fr_energy">    -36.85793390 </i>
    <i name="e_wo_entrp">    -36.85793388 </i>
    <i name="e_0_energy">    -36.85793389 </i>
   </energy>
  </scstep>
  <scstep>
   <time name="diag">   90.33   90.39</time>
   <time name="diis">  146.00  146.15</time>
   <time name="orth">    3.08    3.09</time>
   <time name="total">  276.84  277.12</time>
   <energy>
    <i name="e_fr_energy">    -36.85793390 </i>
    <i name="e_wo_entrp">    -36.85793388 </i>
    <i name="e_0_energy">    -36.85793389 </i>
   </energy>
  </scstep>
  <scstep>
   <time name="diag">   90.41   90.47</time>
   <time name="diis">  138.20  138.43</time>
   <time name="orth">    3.07    3.07</time>
   <time name="total">  268.81  269.30</time>
   <energy>
    <i name="e_fr_energy">    -36.85793390 </i>
    <i name="e_wo_entrp">    -36.85793388 </i>
    <i name="e_0_energy">    -36.85793389 </i>
   </energy>
  </scstep>
  <scstep>
   <time name="diag">   90.29   90.41</time>
   <time name="diis">  139.21  139.24</time>
   <time name="orth">    3.07    3.07</time>
   <time name="total">  235.37  235.58</time>
   <energy>
    <i name="alphaZ">      6.18334092 </i>
    <i name="ewald">   2449.56124917 </i>
    <i name="hartreedc">  -2943.84655502 </i>
    <i name="XCdc">     57.14174324 </i>
    <i name="pawpsdc">    268.82168356 </i>
    <i name="pawaedc">   -273.93318557 </i>
    <i name="eentropy">     -0.00000001 </i>
    <i name="bandstr">   -189.40973708 </i>
    <i name="atom">    588.62352690 </i>
    <i name="e_fr_energy">    -36.85793390 </i>
    <i name="e_wo_entrp">    -36.85793388 </i>
    <i name="e_0_energy">    -36.85793389 </i>
   </energy>
  </scstep>
  <structure>
   <crystal>
    <varray name="basis" >
     <v>       4.25510829       0.00000000       0.00000000 </v>
     <v>       0.00000000       2.52923157       0.00000000 </v>
     <v>       0.00000000       0.00000000      19.59067830 </v>
    </varray>
    <i name="volume">    210.83790140 </i>
    <varray name="rec_basis" >
     <v>       0.23501165       0.00000000       0.00000000 </v>
     <v>       0.00000000       0.39537700       0.00000000 </v>
     <v>       0.00000000       0.00000000       0.05104468 </v>
    </varray>
   </crystal>
   <varray name="positions" >
    <v>       0.00063846       0.00000000      -0.00000000 </v>
    <v>       0.16602820       0.50000000       0.00000000 </v>
    <v>       0.50063846       0.50000000      -0.00000000 </v>
    <v>       0.66602820       0.00000000       0.00000000 </v>
   </varray>
  </structure>
  <varray name="forces" >
   <v>      -0.00000204       0.00000000      -0.00000000 </v>
   <v>       0.00000204      -0.00000000       0.00000000 </v>
   <v>      -0.00000204       0.00000000      -0.00000000 </v>
   <v>       0.00000204      -0.00000000       0.00000000 </v>
  </varray>
  <varray name="stress" >
   <v>       0.00106864       0.00000000       0.00000000 </v>
   <v>       0.00000000     -41.06158772       0.00000000 </v>
   <v>       0.00000000       0.00000000      -0.01013685 </v>
  </varray>
  <energy>
   <i name="e_fr_energy">    -36.85793390 </i>
   <i name="e_wo_entrp">    -36.85793389 </i>
   <i name="e_0_energy">     -0.00000001 </i>
  </energy>
  <time name="totalsc"> 1481.91 1483.23</time>
 </calculation>
 <calculation>
  <scstep>
   <time name="dav">  364.02  364.22</time>
   <time name="total">  401.05  401.27</time>
   <energy>
    <i name="alphaZ">      6.18334092 </i>
    <i name="ewald">   2449.56125463 </i>
    <i name="hartreedc">  -2943.84655741 </i>
    <i name="XCdc">     57.14174339 </i>
    <i name="pawpsdc">    268.82168356 </i>
    <i name="pawaedc">   -273.93318557 </i>
    <i name="eentropy">     -0.00000001 </i>
    <i name="bandstr">   -189.40974031 </i>
    <i name="atom">    588.62352690 </i>
    <i name="e_fr_energy">    -36.85793390 </i>
    <i name="e_wo_entrp">    -36.85793388 </i>
    <i name="e_0_energy">    -36.85793389 </i>
   </energy>
  </scstep>
  <scstep>
   <time name="diag">   90.40   90.42</time>
   <time name="diis">  197.18  197.24</time>
   <time name="orth">    3.07    3.07</time>
   <time name="total">  328.94  329.04</time>
   <energy>
    <i name="e_fr_energy">    -36.85793390 </i>
    <i name="e_wo_entrp">    -36.85793388 </i>
    <i name="e_0_energy">    -36.85793389 </i>
   </energy>
  </scstep>
  <scstep>
   <time name="diag">   90.41   90.44</time>
   <time name="diis">  211.26  211.31</time>
   <time name="orth">    3.09    3.09</time>
   <time name="total">  342.99  343.10</time>
   <energy>
    <i name="e_fr_energy">    -36.85793390 </i>
    <i name="e_wo_entrp">    -36.85793388 </i>
    <i name="e_0_energy">    -36.85793389 </i>
   </energy>
  </scstep>
  <scstep>
   <time name="diag">   90.42   90.45</time>
   <time name="diis">  190.91  190.98</time>
   <time name="orth">    3.07    3.07</time>
   <time name="total">  322.66  322.80</time>
   <energy>
    <i name="e_fr_energy">    -36.85793390 </i>
    <i name="e_wo_entrp">    -36.85793388 </i>
    <i name="e_0_energy">    -36.85793389 </i>
   </energy>
  </scstep>
  <scstep>
   <time name="diag">   90.39   90.44</time>
   <time name="diis">  157.83  157.87</time>
   <time name="orth">    3.08    3.08</time>
   <time name="total">  254.06  254.22</time>
   <energy>
    <i name="alphaZ">      6.18334092 </i>
    <i name="ewald">   2449.56125463 </i>
    <i name="hartreedc">  -2943.84656034 </i>
    <i name="XCdc">     57.14174352 </i>
    <i name="pawpsdc">    268.82169619 </i>
    <i name="pawaedc">   -273.93319828 </i>
    <i name="eentropy">     -0.00000001 </i>
    <i name="bandstr">   -189.40973743 </i>
    <i name="atom">    588.62352690 </i>
    <i name="e_fr_energy">    -36.85793390 </i>
    <i name="e_wo_entrp">    -36.85793388 </i>
    <i name="e_0_energy">    -36.85793389 </i>
   </energy>
  </scstep>
  <structure>
   <crystal>
    <varray name="basis" >
     <v>       4.25510829       0.00000000       0.00000000 </v>
     <v>       0.00000000       2.52923157       0.00000000 </v>
     <v>       0.00000000       0.00000000      19.59067830 </v>
    </varray>
    <i name="volume">    210.83790140 </i>
    <varray name="rec_basis" >
     <v>       0.23501165       0.00000000       0.00000000 </v>
     <v>       0.00000000       0.39537700       0.00000000 </v>
     <v>       0.00000000       0.00000000       0.05104468 </v>
    </varray>
   </crystal>
   <varray name="positions" >
    <v>       0.00063840       0.00000000      -0.00000000 </v>
    <v>       0.16602826       0.50000000       0.00000000 </v>
    <v>       0.50063840       0.50000000      -0.00000000 </v>
    <v>       0.66602826      -0.00000000       0.00000000 </v>
   </varray>
  </structure>
  <varray name="forces" >
   <v>       0.00002005      -0.00000000       0.00000000 </v>
   <v>      -0.00002005       0.00000000      -0.00000000 </v>
   <v>       0.00002005      -0.00000000       0.00000000 </v>
   <v>      -0.00002005       0.00000000      -0.00000000 </v>
  </varray>
  <varray name="stress" >
   <v>       0.00114860       0.00000000       0.00000000 </v>
   <v>       0.00000000     -41.06162211       0.00000000 </v>
   <v>       0.00000000       0.00000000      -0.01013250 </v>
  </varray>
  <energy>
   <i name="e_fr_energy">    -36.85793390 </i>
   <i name="e_wo_entrp">    -36.85793389 </i>
   <i name="e_0_energy">     -0.00000001 </i>
  </energy>
  <time name="totalsc"> 1758.35 1759.12</time>
 </calculation>
 <calculation>
  <scstep>
   <time name="dav">  341.37  342.01</time>
   <time name="total">  379.66  380.31</time>
   <energy>
    <i name="alphaZ">      6.18334092 </i>
    <i name="ewald">   2449.56124968 </i>
    <i name="hartreedc">  -2943.84655824 </i>
    <i name="XCdc">     57.14174337 </i>
    <i name="pawpsdc">    268.82169593 </i>
    <i name="pawaedc">   -273.93319802 </i>
    <i name="eentropy">     -0.00000001 </i>
    <i name="bandstr">   -189.40973443 </i>
    <i name="atom">    588.62352690 </i>
    <i name="e_fr_energy">    -36.85793390 </i>
    <i name="e_wo_entrp">    -36.85793388 </i>
    <i name="e_0_energy">    -36.85793389 </i>
   </energy>
  </scstep>
  <scstep>
   <time name="diag">   90.37   90.40</time>
   <time name="diis">  194.61  194.67</time>
   <time name="orth">    3.08    3.08</time>
   <time name="total">  326.24  326.43</time>
   <energy>
    <i name="e_fr_energy">    -36.85793390 </i>
    <i name="e_wo_entrp">    -36.85793388 </i>
    <i name="e_0_energy">    -36.85793389 </i>
   </energy>
  </scstep>
  <scstep>
   <time name="diag">   90.00   90.47</time>
   <time name="diis">  204.72  205.41</time>
   <time name="orth">    3.10    3.10</time>
   <time name="total">  336.03  337.41</time>
   <energy>
    <i name="e_fr_energy">    -36.85793390 </i>
    <i name="e_wo_entrp">    -36.85793388 </i>
    <i name="e_0_energy">    -36.85793389 </i>
   </energy>
  </scstep>
  <scstep>
   <time name="diag">   90.41   90.44</time>
   <time name="diis">  188.60  188.65</time>
   <time name="orth">    3.10    3.10</time>
   <time name="total">  320.37  320.50</time>
   <energy>
    <i name="e_fr_energy">    -36.85793390 </i>
    <i name="e_wo_entrp">    -36.85793388 </i>
    <i name="e_0_energy">    -36.85793389 </i>
   </energy>
  </scstep>
  <scstep>
   <time name="diag">   90.44   90.46</time>
   <time name="diis">  172.23  172.28</time>
   <time name="orth">    3.10    3.10</time>
   <time name="total">  268.54  268.99</time>
   <energy>
    <i name="alphaZ">      6.18334092 </i>
    <i name="ewald">   2449.56124968 </i>
    <i name="hartreedc">  -2943.84655423 </i>
    <i name="XCdc">     57.14174320 </i>
    <i name="pawpsdc">    268.82168037 </i>
    <i name="pawaedc">   -273.93318236 </i>
    <i name="eentropy">     -0.00000001 </i>
    <i name="bandstr">   -189.40973837 </i>
    <i name="atom">    588.62352690 </i>
    <i name="e_fr_energy">    -36.85793390 </i>
    <i name="e_wo_entrp">    -36.85793388 </i>
    <i name="e_0_energy">    -36.85793389 </i>
   </energy>
  </scstep>
  <structure>
   <crystal>
    <varray name="basis" >
     <v>       4.25510829       0.00000000       0.00000000 </v>
     <v>       0.00000000       2.52923157       0.00000000 </v>
     <v>       0.00000000       0.00000000      19.59067830 </v>
    </varray>
    <i name="volume">    210.83790140 </i>
    <varray name="rec_basis" >
     <v>       0.23501165       0.00000000       0.00000000 </v>
     <v>       0.00000000       0.39537700       0.00000000 </v>
     <v>       0.00000000       0.00000000       0.05104468 </v>
    </varray>
   </crystal>
   <varray name="positions" >
    <v>       0.00063846       0.00000000      -0.00000000 </v>
    <v>       0.16602821       0.50000000       0.00000000 </v>
    <v>       0.50063846       0.50000000      -0.00000000 </v>
    <v>       0.66602821      -0.00000000       0.00000000 </v>
   </varray>
  </structure>
  <varray name="forces" >
   <v>       0.00000380      -0.00000000       0.00000000 </v>
   <v>      -0.00000380       0.00000000       0.00000000 </v>
   <v>       0.00000380       0.00000000       0.00000000 </v>
   <v>      -0.00000380      -0.00000000       0.00000000 </v>
  </varray>
  <varray name="stress" >
   <v>       0.00110506       0.00000000       0.00000000 </v>
   <v>       0.00000000     -41.06162025       0.00000000 </v>
[...]
       <r>   -9.0078    1.0000 </r>
       <r>   -5.6637    1.0000 </r>
       <r>   -5.6637    1.0000 </r>
       <r>   -0.5724    0.0000 </r>
       <r>   -0.5724    0.0000 </r>
       <r>    4.8100    0.0000 </r>
       <r>    4.8100    0.0000 </r>
      </set>
      <set comment="kpoint 209">
       <r>  -18.8385    1.0000 </r>
       <r>  -17.1512    1.0000 </r>
       <r>  -13.8593    1.0000 </r>
       <r>  -12.3116    1.0000 </r>
       <r>  -12.3035    1.0000 </r>
       <r>  -10.8489    1.0000 </r>
       <r>   -6.4981    1.0000 </r>
       <r>   -4.6985    1.0000 </r>
       <r>   -0.9965    0.0000 </r>
       <r>    1.0574    0.0000 </r>
       <r>    5.0325    0.0000 </r>
       <r>    5.8216    0.0000 </r>
      </set>
      <set comment="kpoint 210">
       <r>  -18.8287    1.0000 </r>
       <r>  -17.1437    1.0000 </r>
       <r>  -13.9519    1.0000 </r>
       <r>  -12.3910    1.0000 </r>
       <r>  -12.2106    1.0000 </r>
       <r>  -10.7629    1.0000 </r>
       <r>   -6.4893    1.0000 </r>
       <r>   -4.7005    1.0000 </r>
       <r>   -1.0077    0.0000 </r>
       <r>    1.0314    0.0000 </r>
       <r>    5.0462    0.0000 </r>
       <r>    5.8379    0.0000 </r>
      </set>
      <set comment="kpoint 211">
       <r>  -18.7995    1.0000 </r>
       <r>  -17.1218    1.0000 </r>
       <r>  -14.1776    1.0000 </r>
       <r>  -12.6082    1.0000 </r>
       <r>  -11.9594    1.0000 </r>
       <r>  -10.5510    1.0000 </r>
       <r>   -6.4629    1.0000 </r>
       <r>   -4.7071    1.0000 </r>
       <r>   -1.0394    0.0000 </r>
       <r>    0.9554    0.0000 </r>
       <r>    5.0873    0.0000 </r>
       <r>    5.8862    0.0000 </r>
      </set>
      <set comment="kpoint 212">
       <r>  -18.7509    1.0000 </r>
       <r>  -17.0867    1.0000 </r>
       <r>  -14.4608    1.0000 </r>
       <r>  -12.8878    1.0000 </r>
       <r>  -11.6338    1.0000 </r>
       <r>  -10.2825    1.0000 </r>
       <r>   -6.4193    1.0000 </r>
       <r>   -4.7199    1.0000 </r>
       <r>   -1.0862    0.0000 </r>
       <r>    0.8349    0.0000 </r>
       <r>    5.1556    0.0000 </r>
       <r>    5.9654    0.0000 </r>
      </set>
      <set comment="kpoint 213">
       <r>  -18.6831    1.0000 </r>
       <r>  -17.0412    1.0000 </r>
       <r>  -14.7585    1.0000 </r>
       <r>  -13.1919    1.0000 </r>
       <r>  -11.2766    1.0000 </r>
       <r>   -9.9986    1.0000 </r>
       <r>   -6.3591    1.0000 </r>
       <r>   -4.7411    1.0000 </r>
       <r>   -1.1402    0.0000 </r>
       <r>    0.6778    0.0000 </r>
       <r>    5.2501    0.0000 </r>
       <r>    6.0743    0.0000 </r>
      </set>
      <set comment="kpoint 214">
       <r>  -18.5963    1.0000 </r>
       <r>  -16.9904    1.0000 </r>
       <r>  -15.0473    1.0000 </r>
       <r>  -13.5025    1.0000 </r>
       <r>  -10.9095    1.0000 </r>
       <r>   -9.7223    1.0000 </r>
       <r>   -6.2829    1.0000 </r>
       <r>   -4.7737    1.0000 </r>
       <r>   -1.1917    0.0000 </r>
       <r>    0.4931    0.0000 </r>
       <r>    5.3676    0.0000 </r>
       <r>    6.1834    0.0000 </r>
      </set>
      <set comment="kpoint 215">
       <r>  -18.4911    1.0000 </r>
       <r>  -16.9435    1.0000 </r>
       <r>  -15.3088    1.0000 </r>
       <r>  -13.8103    1.0000 </r>
       <r>  -10.5458    1.0000 </r>
       <r>   -9.4685    1.0000 </r>
       <r>   -6.1918    1.0000 </r>
       <r>   -4.8207    1.0000 </r>
       <r>   -1.2312    0.0000 </r>
       <r>    0.2901    0.0000 </r>
       <r>    5.4787    0.0000 </r>
       <r>    5.7771    0.0000 </r>
      </set>
      <set comment="kpoint 216">
       <r>  -18.3678    1.0000 </r>
       <r>  -16.9174    1.0000 </r>
       <r>  -15.5216    1.0000 </r>
       <r>  -14.1097    1.0000 </r>
       <r>  -10.1962    1.0000 </r>
       <r>   -9.2497    1.0000 </r>
       <r>   -6.0873    1.0000 </r>
       <r>   -4.8843    1.0000 </r>
       <r>   -1.2500    0.0000 </r>
       <r>    0.0773    0.0000 </r>
       <r>    5.2987    0.0000 </r>
       <r>    5.7527    0.0000 </r>
      </set>
      <set comment="kpoint 217">
       <r>  -18.2272    1.0000 </r>
       <r>  -16.9361    1.0000 </r>
       <r>  -15.6586    1.0000 </r>
       <r>  -14.3968    1.0000 </r>
       <r>   -9.8700    1.0000 </r>
       <r>   -9.0763    1.0000 </r>
       <r>   -5.9709    1.0000 </r>
       <r>   -4.9656    1.0000 </r>
       <r>   -1.2415    0.0000 </r>
       <r>   -0.1375    0.0000 </r>
       <r>    5.0075    0.0000 </r>
       <r>    5.8259    0.0000 </r>
      </set>
      <set comment="kpoint 218">
       <r>  -18.0706    1.0000 </r>
       <r>  -17.0189    1.0000 </r>
       <r>  -15.6991    1.0000 </r>
       <r>  -14.6685    1.0000 </r>
       <r>   -9.5769    1.0000 </r>
       <r>   -8.9576    1.0000 </r>
       <r>   -5.8449    1.0000 </r>
       <r>   -5.0643    1.0000 </r>
       <r>   -1.2015    0.0000 </r>
       <r>   -0.3475    0.0000 </r>
       <r>    4.7880    0.0000 </r>
       <r>    5.4261    0.0000 </r>
      </set>
      <set comment="kpoint 219">
       <r>  -17.8995    1.0000 </r>
       <r>  -17.1601    1.0000 </r>
       <r>  -15.6474    1.0000 </r>
       <r>  -14.9217    1.0000 </r>
       <r>   -9.3261    1.0000 </r>
       <r>   -8.9006    1.0000 </r>
       <r>   -5.7119    1.0000 </r>
       <r>   -5.1781    1.0000 </r>
       <r>   -1.1287    0.0000 </r>
       <r>   -0.5463    0.0000 </r>
       <r>    4.6584    0.0000 </r>
       <r>    5.0969    0.0000 </r>
      </set>
      <set comment="kpoint 220">
       <r>  -17.7166    1.0000 </r>
       <r>  -17.3364    1.0000 </r>
       <r>  -15.5264    1.0000 </r>
       <r>  -15.1529    1.0000 </r>
       <r>   -9.1265    1.0000 </r>
       <r>   -8.9098    1.0000 </r>
       <r>   -5.5749    1.0000 </r>
       <r>   -5.3039    1.0000 </r>
       <r>   -1.0237    0.0000 </r>
       <r>   -0.7285    0.0000 </r>
       <r>    4.6249    0.0000 </r>
       <r>    4.8484    0.0000 </r>
      </set>
      <set comment="kpoint 221">
       <r>  -17.5264    1.0000 </r>
       <r>  -17.5264    1.0000 </r>
       <r>  -15.3570    1.0000 </r>
       <r>  -15.3570    1.0000 </r>
       <r>   -8.9859    1.0000 </r>
       <r>   -8.9859    1.0000 </r>
       <r>   -5.4376    1.0000 </r>
       <r>   -5.4376    1.0000 </r>
       <r>   -0.8891    0.0000 </r>
       <r>   -0.8891    0.0000 </r>
       <r>    4.6891    0.0000 </r>
       <r>    4.6891    0.0000 </r>
      </set>
      <set comment="kpoint 222">
       <r>  -18.4389    1.0000 </r>
       <r>  -17.5914    1.0000 </r>
       <r>  -13.4990    1.0000 </r>
       <r>  -12.7203    1.0000 </r>
       <r>  -11.9805    1.0000 </r>
       <r>  -11.2445    1.0000 </r>
       <r>   -6.0613    1.0000 </r>
       <r>   -5.1568    1.0000 </r>
       <r>   -0.5148    0.0000 </r>
       <r>    0.5141    0.0000 </r>
       <r>    5.6012    0.0000 </r>
       <r>    6.3591    0.0000 </r>
      </set>
      <set comment="kpoint 223">
       <r>  -18.4293    1.0000 </r>
       <r>  -17.5828    1.0000 </r>
       <r>  -13.5923    1.0000 </r>
       <r>  -12.8105    1.0000 </r>
       <r>  -11.8814    1.0000 </r>
       <r>  -11.1533    1.0000 </r>
       <r>   -6.0537    1.0000 </r>
       <r>   -5.1540    1.0000 </r>
       <r>   -0.5320    0.0000 </r>
       <r>    0.4901    0.0000 </r>
       <r>    5.6149    0.0000 </r>
       <r>    6.3762    0.0000 </r>
      </set>
      <set comment="kpoint 224">
       <r>  -18.4007    1.0000 </r>
       <r>  -17.5572    1.0000 </r>
       <r>  -13.8204    1.0000 </r>
       <r>  -13.0330    1.0000 </r>
       <r>  -11.6365    1.0000 </r>
       <r>  -10.9286    1.0000 </r>
       <r>   -6.0313    1.0000 </r>
       <r>   -5.1462    1.0000 </r>
       <r>   -0.5819    0.0000 </r>
       <r>    0.4200    0.0000 </r>
       <r>    5.6558    0.0000 </r>
       <r>    6.4268    0.0000 </r>
      </set>
      <set comment="kpoint 225">
       <r>  -18.3533    1.0000 </r>
       <r>  -17.5150    1.0000 </r>
       <r>  -14.1087    1.0000 </r>
       <r>  -13.3176    1.0000 </r>
       <r>  -11.3211    1.0000 </r>
       <r>  -10.6421    1.0000 </r>
       <r>   -5.9944    1.0000 </r>
       <r>   -5.1345    1.0000 </r>
       <r>   -0.6589    0.0000 </r>
       <r>    0.3093    0.0000 </r>
       <r>    5.7235    0.0000 </r>
       <r>    6.5095    0.0000 </r>
      </set>
      <set comment="kpoint 226">
       <r>  -18.2872    1.0000 </r>
       <r>  -17.4575    1.0000 </r>
       <r>  -14.4163    1.0000 </r>
       <r>  -13.6254    1.0000 </r>
       <r>  -10.9780    1.0000 </r>
       <r>  -10.3359    1.0000 </r>
       <r>   -5.9438    1.0000 </r>
       <r>   -5.1206    1.0000 </r>
       <r>   -0.7551    0.0000 </r>
       <r>    0.1658    0.0000 </r>
       <r>    5.8165    0.0000 </r>
       <r>    6.6225    0.0000 </r>
      </set>
      <set comment="kpoint 227">
       <r>  -18.2030    1.0000 </r>
       <r>  -17.3864    1.0000 </r>
       <r>  -14.7232    1.0000 </r>
       <r>  -13.9382    1.0000 </r>
       <r>  -10.6290    1.0000 </r>
       <r>  -10.0324    1.0000 </r>
       <r>   -5.8808    1.0000 </r>
       <r>   -5.1072    1.0000 </r>
       <r>   -0.8607    0.0000 </r>
       <r>   -0.0013    0.0000 </r>
       <r>    5.9258    0.0000 </r>
       <r>    6.4523    0.0000 </r>
      </set>
      <set comment="kpoint 228">
       <r>  -18.1012    1.0000 </r>
       <r>  -17.3049    1.0000 </r>
       <r>  -15.0173    1.0000 </r>
       <r>  -14.2463    1.0000 </r>
       <r>  -10.2880    1.0000 </r>
       <r>   -9.7463    1.0000 </r>
       <r>   -5.8068    1.0000 </r>
       <r>   -5.0974    1.0000 </r>
       <r>   -0.9653    0.0000 </r>
       <r>   -0.1825    0.0000 </r>
       <r>    5.8810    0.0000 </r>
       <r>    6.1687    0.0000 </r>
      </set>
      <set comment="kpoint 229">
       <r>  -17.9829    1.0000 </r>
       <r>  -17.2190    1.0000 </r>
       <r>  -15.2881    1.0000 </r>
       <r>  -14.5440    1.0000 </r>
       <r>   -9.9658    1.0000 </r>
       <r>   -9.4896    1.0000 </r>
       <r>   -5.7241    1.0000 </r>
       <r>   -5.0947    1.0000 </r>
       <r>   -1.0587    0.0000 </r>
       <r>   -0.3686    0.0000 </r>
       <r>    5.5017    0.0000 </r>
       <r>    5.9927    0.0000 </r>
      </set>
      <set comment="kpoint 230">
       <r>  -17.8496    1.0000 </r>
       <r>  -17.1388    1.0000 </r>
       <r>  -15.5223    1.0000 </r>
       <r>  -14.8266    1.0000 </r>
       <r>   -9.6724    1.0000 </r>
       <r>   -9.2728    1.0000 </r>
       <r>   -5.6349    1.0000 </r>
       <r>   -5.1028    1.0000 </r>
       <r>   -1.1316    0.0000 </r>
       <r>   -0.5512    0.0000 </r>
       <r>    5.1548    0.0000 </r>
       <r>    5.5653    0.0000 </r>
      </set>
      <set comment="kpoint 231">
       <r>  -17.7036    1.0000 </r>
       <r>  -17.0827    1.0000 </r>
       <r>  -15.7001    1.0000 </r>
       <r>  -15.0900    1.0000 </r>
       <r>   -9.4177    1.0000 </r>
       <r>   -9.1056    1.0000 </r>
       <r>   -5.5426    1.0000 </r>
       <r>   -5.1245    1.0000 </r>
       <r>   -1.1762    0.0000 </r>
       <r>   -0.7223    0.0000 </r>
       <r>    4.8830    0.0000 </r>
       <r>    5.2037    0.0000 </r>
      </set>
      <set comment="kpoint 232">
       <r>  -17.5491    1.0000 </r>
       <r>  -17.0754    1.0000 </r>
       <r>  -15.7954    1.0000 </r>
       <r>  -15.3287    1.0000 </r>
       <r>   -9.2108    1.0000 </r>
       <r>   -8.9963    1.0000 </r>
       <r>   -5.4505    1.0000 </r>
       <r>   -5.1618    1.0000 </r>
       <r>   -1.1871    0.0000 </r>
       <r>   -0.8748    0.0000 </r>
       <r>    4.6984    0.0000 </r>
       <r>    4.9190    0.0000 </r>
      </set>
      <set comment="kpoint 233">
       <r>  -17.3929    1.0000 </r>
       <r>  -17.1335    1.0000 </r>
       <r>  -15.7910    1.0000 </r>
       <r>  -15.5350    1.0000 </r>
       <r>   -9.0602    1.0000 </r>
       <r>   -8.9508    1.0000 </r>
       <r>   -5.3626    1.0000 </r>
       <r>   -5.2151    1.0000 </r>
       <r>   -1.1615    0.0000 </r>
       <r>   -1.0022    0.0000 </r>
       <r>    4.6081    0.0000 </r>
       <r>    4.7206    0.0000 </r>
      </set>
      <set comment="kpoint 234">
       <r>  -17.2475    1.0000 </r>
       <r>  -17.2475    1.0000 </r>
       <r>  -15.6960    1.0000 </r>
       <r>  -15.6960    1.0000 </r>
       <r>   -8.9723    1.0000 </r>
       <r>   -8.9723    1.0000 </r>
       <r>   -5.2829    1.0000 </r>
       <r>   -5.2829    1.0000 </r>
       <r>   -1.0991    0.0000 </r>
       <r>   -1.0991    0.0000 </r>
       <r>    4.6156    0.0000 </r>
       <r>    4.6156    0.0000 </r>
      </set>
      <set comment="kpoint 235">
       <r>  -18.0222    1.0000 </r>
       <r>  -18.0222    1.0000 </r>
       <r>  -13.1192    1.0000 </r>
       <r>  -13.1192    1.0000 </r>
       <r>  -11.6230    1.0000 </r>
       <r>  -11.6230    1.0000 </r>
       <r>   -5.6127    1.0000 </r>
       <r>   -5.6127    1.0000 </r>
       <r>   -0.0107    0.0000 </r>
       <r>   -0.0107    0.0000 </r>
       <r>    6.1987    0.0000 </r>
       <r>    6.1987    0.0000 </r>
      </set>
      <set comment="kpoint 236">
       <r>  -18.0130    1.0000 </r>
       <r>  -18.0130    1.0000 </r>
       <r>  -13.2114    1.0000 </r>
       <r>  -13.2114    1.0000 </r>
       <r>  -11.5275    1.0000 </r>
       <r>  -11.5275    1.0000 </r>
       <r>   -5.6071    1.0000 </r>
       <r>   -5.6071    1.0000 </r>
       <r>   -0.0319    0.0000 </r>
       <r>   -0.0319    0.0000 </r>
       <r>    6.2123    0.0000 </r>
       <r>    6.2123    0.0000 </r>
      </set>
      <set comment="kpoint 237">
       <r>  -17.9854    1.0000 </r>
       <r>  -17.9854    1.0000 </r>
       <r>  -13.4378    1.0000 </r>
       <r>  -13.4378    1.0000 </r>
       <r>  -11.2915    1.0000 </r>
       <r>  -11.2915    1.0000 </r>
       <r>   -5.5904    1.0000 </r>
       <r>   -5.5904    1.0000 </r>
       <r>   -0.0937    0.0000 </r>
       <r>   -0.0937    0.0000 </r>
       <r>    6.2529    0.0000 </r>
       <r>    6.2529    0.0000 </r>
      </set>
      <set comment="kpoint 238">
       <r>  -17.9399    1.0000 </r>
       <r>  -17.9399    1.0000 </r>
       <r>  -13.7257    1.0000 </r>
       <r>  -13.7257    1.0000 </r>
       <r>  -10.9894    1.0000 </r>
       <r>  -10.9894    1.0000 </r>
       <r>   -5.5634    1.0000 </r>
       <r>   -5.5634    1.0000 </r>
       <r>   -0.1907    0.0000 </r>
       <r>   -0.1907    0.0000 </r>
       <r>    6.3198    0.0000 </r>
       <r>    6.3198    0.0000 </r>
      </set>
      <set comment="kpoint 239">
       <r>  -17.8767    1.0000 </r>
       <r>  -17.8767    1.0000 </r>
       <r>  -14.0352    1.0000 </r>
       <r>  -14.0352    1.0000 </r>
       <r>  -10.6634    1.0000 </r>
       <r>  -10.6634    1.0000 </r>
       <r>   -5.5273    1.0000 </r>
       <r>   -5.5273    1.0000 </r>
       <r>   -0.3149    0.0000 </r>
       <r>   -0.3149    0.0000 </r>
       <r>    6.4098    0.0000 </r>
       <r>    6.4098    0.0000 </r>
      </set>
      <set comment="kpoint 240">
       <r>  -17.7969    1.0000 </r>
       <r>  -17.7969    1.0000 </r>
       <r>  -14.3476    1.0000 </r>
       <r>  -14.3476    1.0000 </r>
       <r>  -10.3357    1.0000 </r>
       <r>  -10.3357    1.0000 </r>
       <r>   -5.4839    1.0000 </r>
       <r>   -5.4839    1.0000 </r>
       <r>   -0.4571    0.0000 </r>
       <r>   -0.4571    0.0000 </r>
       <r>    6.4879    0.0000 </r>
       <r>    6.4879    0.0000 </r>
      </set>
      <set comment="kpoint 241">
       <r>  -17.7016    1.0000 </r>
       <r>  -17.7016    1.0000 </r>
       <r>  -14.6527    1.0000 </r>
       <r>  -14.6527    1.0000 </r>
       <r>  -10.0205    1.0000 </r>
       <r>  -10.0205    1.0000 </r>
       <r>   -5.4355    1.0000 </r>
       <r>   -5.4355    1.0000 </r>
       <r>   -0.6071    0.0000 </r>
       <r>   -0.6071    0.0000 </r>
       <r>    6.1744    0.0000 </r>
       <r>    6.1744    0.0000 </r>
      </set>
      <set comment="kpoint 242">
       <r>  -17.5931    1.0000 </r>
       <r>  -17.5931    1.0000 </r>
       <r>  -14.9435    1.0000 </r>
       <r>  -14.9435    1.0000 </r>
       <r>   -9.7293    1.0000 </r>
       <r>   -9.7293    1.0000 </r>
       <r>   -5.3851    1.0000 </r>
       <r>   -5.3851    1.0000 </r>
       <r>   -0.7551    0.0000 </r>
       <r>   -0.7551    0.0000 </r>
       <r>    5.7314    0.0000 </r>
       <r>    5.7314    0.0000 </r>
      </set>
      <set comment="kpoint 243">
       <r>  -17.4750    1.0000 </r>
       <r>  -17.4750    1.0000 </r>
       <r>  -15.2135    1.0000 </r>
       <r>  -15.2135    1.0000 </r>
       <r>   -9.4724    1.0000 </r>
       <r>   -9.4724    1.0000 </r>
       <r>   -5.3362    1.0000 </r>
       <r>   -5.3362    1.0000 </r>
       <r>   -0.8918    0.0000 </r>
       <r>   -0.8918    0.0000 </r>
       <r>    5.3410    0.0000 </r>
       <r>    5.3410    0.0000 </r>
      </set>
      <set comment="kpoint 244">
       <r>  -17.3536    1.0000 </r>
       <r>  -17.3536    1.0000 </r>
       <r>  -15.4545    1.0000 </r>
       <r>  -15.4545    1.0000 </r>
       <r>   -9.2597    1.0000 </r>
       <r>   -9.2597    1.0000 </r>
       <r>   -5.2924    1.0000 </r>
       <r>   -5.2924    1.0000 </r>
       <r>   -1.0085    0.0000 </r>
       <r>   -1.0085    0.0000 </r>
       <r>    5.0220    0.0000 </r>
       <r>    5.0220    0.0000 </r>
      </set>
      <set comment="kpoint 245">
       <r>  -17.2404    1.0000 </r>
       <r>  -17.2404    1.0000 </r>
       <r>  -15.6539    1.0000 </r>
       <r>  -15.6539    1.0000 </r>
       <r>   -9.1002    1.0000 </r>
       <r>   -9.1002    1.0000 </r>
       <r>   -5.2576    1.0000 </r>
       <r>   -5.2576    1.0000 </r>
       <r>   -1.0979    0.0000 </r>
       <r>   -1.0979    0.0000 </r>
       <r>    4.7856    0.0000 </r>
       <r>    4.7856    0.0000 </r>
      </set>
      <set comment="kpoint 246">
       <r>  -17.1548    1.0000 </r>
       <r>  -17.1548    1.0000 </r>
       <r>  -15.7915    1.0000 </r>
       <r>  -15.7915    1.0000 </r>
       <r>   -9.0012    1.0000 </r>
       <r>   -9.0012    1.0000 </r>
       <r>   -5.2351    1.0000 </r>
       <r>   -5.2351    1.0000 </r>
       <r>   -1.1541    0.0000 </r>
       <r>   -1.1541    0.0000 </r>
       <r>    4.6401    0.0000 </r>
       <r>    4.6401    0.0000 </r>
      </set>
      <set comment="kpoint 247">
       <r>  -17.1218    1.0000 </r>
       <r>  -17.1218    1.0000 </r>
       <r>  -15.8419    1.0000 </r>
       <r>  -15.8419    1.0000 </r>
       <r>   -8.9676    1.0000 </r>
       <r>   -8.9676    1.0000 </r>
       <r>   -5.2273    1.0000 </r>
       <r>   -5.2273    1.0000 </r>
       <r>   -1.1733    0.0000 </r>
       <r>   -1.1733    0.0000 </r>
       <r>    4.5910    0.0000 </r>
       <r>    4.5910    0.0000 </r>
      </set>
     </set>
    </set>
   </array>
  </eigenvalues>
  <separator name="orbital magnetization" >
   <v name="MAGDIPOLOUT">      0.00000000      0.00000000      0.00000000</v>
  </separator>
 </calculation>
 <structure name="finalpos" >
  <crystal>
   <varray name="basis" >
    <v>       4.25510829       0.00000000       0.00000000 </v>
    <v>       0.00000000       2.52923157       0.00000000 </v>
    <v>       0.00000000       0.00000000      19.59067830 </v>
   </varray>
   <i name="volume">    210.83790140 </i>
   <varray name="rec_basis" >
    <v>       0.23501165       0.00000000       0.00000000 </v>
    <v>       0.00000000       0.39537700       0.00000000 </v>
    <v>       0.00000000       0.00000000       0.05104468 </v>
   </varray>
  </crystal>
  <varray name="positions" >
   <v>       0.00063846      -0.00000000      -0.00000000 </v>
   <v>       0.16602821       0.50000000       0.00000000 </v>
   <v>       0.50063846       0.50000000      -0.00000000 </v>
   <v>       0.66602821      -0.00000000       0.00000000 </v>
  </varray>
 </structure>
</modeling>
