gr                                      
           1
     4.255108    0.000000    0.000000
     0.000000    2.529232    0.000000
     0.000000    0.000000   19.590678
   C 
   4
Direct configuration=     1
   0.00063729  0.00000000  0.00000000
   0.16602938  0.50000000  0.00000000
   0.50063729  0.50000000  0.00000000
   0.66602938  0.00000000  0.00000000
Direct configuration=     2
   0.00064312  0.00000000 -0.00000000
   0.16602355  0.50000000  0.00000000
   0.50064312  0.50000000 -0.00000000
   0.66602355  0.00000000  0.00000000
Direct configuration=     3
   0.00063846  0.00000000 -0.00000000
   0.16602821  0.50000000  0.00000000
   0.50063846  0.50000000 -0.00000000
   0.66602821  0.00000000  0.00000000
Direct configuration=     4
   0.00063848  0.00000000 -0.00000000
   0.16602819  0.50000000  0.00000000
   0.50063848  0.50000000 -0.00000000
   0.66602819  0.00000000  0.00000000
Direct configuration=     5
   0.00063847  0.00000000 -0.00000000
   0.16602820  0.50000000  0.00000000
   0.50063847  0.50000000 -0.00000000
   0.66602820  0.00000000  0.00000000
Direct configuration=     6
   0.00063846  0.00000000 -0.00000000
   0.16602820  0.50000000  0.00000000
   0.50063846  0.50000000 -0.00000000
   0.66602820  0.00000000  0.00000000
Direct configuration=     7
   0.00063840  0.00000000 -0.00000000
   0.16602826  0.50000000  0.00000000
   0.50063840  0.50000000 -0.00000000
   0.66602826 -0.00000000  0.00000000
Direct configuration=     8
   0.00063846  0.00000000 -0.00000000
   0.16602821  0.50000000  0.00000000
   0.50063846  0.50000000 -0.00000000
   0.66602821 -0.00000000  0.00000000
Direct configuration=     9
   0.00063847 -0.00000000  0.00000000
   0.16602820  0.50000000 -0.00000000
   0.50063847  0.50000000  0.00000000
   0.66602820 -0.00000000 -0.00000000
Direct configuration=    10
   0.00063846  0.00000000 -0.00000000
   0.16602820  0.50000000  0.00000000
   0.50063846  0.50000000 -0.00000000
   0.66602820 -0.00000000  0.00000000
Direct configuration=    11
   0.00063846 -0.00000000 -0.00000000
   0.16602821  0.50000000  0.00000000
   0.50063846  0.50000000 -0.00000000
   0.66602821 -0.00000000  0.00000000
