    4    4  400    1
  0.5270948E+02  0.4261938E-09  0.2504681E-09  0.1975100E-08  0.5000000E-15
  1.000000000000000E-004
  CAR 
 gr                                      
     16    247     12
 
  0.0000000E+00  0.0000000E+00  0.0000000E+00  0.1157407E-02
    1      -22.149063
    2      -16.827730
    3      -15.905816
    4      -10.278172
    5       -9.357306
    6       -5.917664
    7       -5.754251
    8       -4.984951
    9       -1.112854
   10        0.536344
   11        1.335477
   12        1.724238
 
  0.4166667E-01  0.0000000E+00  0.0000000E+00  0.2314815E-02
    1      -22.138736
    2      -17.010749
    3      -15.707680
    4      -10.265885
    5       -9.346981
    6       -5.940939
    7       -5.795453
    8       -5.053619
    9       -1.028903
   10        0.550343
   11        1.349633
   12        1.738569
 
  0.8333333E-01  0.0000000E+00  0.0000000E+00  0.2314815E-02
    1      -22.107761
    2      -17.365760
    3      -15.307404
    4      -10.229044
    5       -9.316055
    6       -6.009441
    7       -5.917486
    8       -5.243373
    9       -0.793475
   10        0.592339
   11        1.392096
   12        1.781564
 
  0.1250000E+00  0.0000000E+00  0.0000000E+00  0.2314815E-02
    1      -22.056156
    2      -17.752481
    3      -14.845545
    4      -10.167705
    5       -9.264679
    6       -6.119438
    7       -6.115881
    8       -5.518651
    9       -0.442658
   10        0.662330
   11        1.462857
   12        1.853223
 
  0.1666667E+00  0.0000000E+00  0.0000000E+00  0.2314815E-02
    1      -21.983957
    2      -18.138232
    3      -14.355247
    4      -10.081966
    5       -9.193112
    6       -6.383913
    7       -6.265390
    8       -5.845071
    9       -0.011723
   10        0.760311
   11        1.561893
   12        1.953545
 
  0.2083333E+00  0.0000000E+00  0.0000000E+00  0.2314815E-02
    1      -21.891214
    2      -18.513536
    3      -13.846659
    4       -9.971967
    5       -9.101729
    6       -6.713448
    7       -6.440726
    8       -6.197663
    9        0.473104
   10        0.886272
   11        1.689173
   12        2.082532
 
  0.2500000E+00  0.0000000E+00  0.0000000E+00  0.2314815E-02
    1      -21.777988
    2      -18.874622
    3      -13.324433
    4       -9.837896
    5       -8.991030
    6       -7.095761
    7       -6.638558
    8       -6.560106
    9        0.993848
   10        1.040193
   11        1.844653
   12        2.240175
 
  0.2916667E+00  0.0000000E+00  0.0000000E+00  0.2314815E-02
    1      -21.644361
    2      -19.219607
    3      -12.791581
    4       -9.679997
    5       -8.861662
    6       -7.522190
    7       -6.921946
    8       -6.852229
    9        1.222042
   10        1.537962
   11        2.028263
   12        2.426477
 
  0.3333333E+00  0.0000000E+00  0.0000000E+00  0.2314815E-02
    1      -21.490429
    2      -19.547382
    3      -12.250608
    4       -9.498576
    5       -8.714433
    6       -7.984569
    7       -7.276380
    8       -7.075655
    9        1.431778
   10        2.095966
   11        2.239897
   12        2.641426
 
  0.3750000E+00  0.0000000E+00  0.0000000E+00  0.2314815E-02
    1      -21.316307
    2      -19.857211
    3      -11.703957
    4       -9.294021
    5       -8.550349
    6       -8.475468
    7       -7.618846
    8       -7.303473
    9        1.669343
   10        2.479374
   11        2.659493
   12        2.885037
 
  0.4166667E+00  0.0000000E+00  0.0000000E+00  0.2314815E-02
    1      -21.122129
    2      -20.148562
    3      -11.154217
    4       -9.066812
    5       -8.988290
    6       -8.370643
    7       -7.946181
    8       -7.531078
    9        1.934654
   10        2.746333
   11        3.157341
   12        3.264853
 
  0.4583333E+00  0.0000000E+00  0.0000000E+00  0.2314815E-02
    1      -20.908056
    2      -20.421027
    3      -10.604265
    4       -9.517259
    5       -8.817551
    6       -8.256121
    7       -8.176824
    8       -7.754578
    9        2.227594
   10        2.895497
   11        3.039815
   12        3.462038
 
  0.5000000E+00  0.0000000E+00  0.0000000E+00  0.1157407E-02
    1      -20.674281
    2      -20.674281
    3      -10.057362
    4      -10.057362
    5       -8.546997
    6       -8.546997
    7       -7.970726
    8       -7.970726
    9        2.547984
   10        2.547984
   11        3.355749
   12        3.355750
 
  0.0000000E+00  0.2777778E-01  0.0000000E+00  0.2314815E-02
    1      -22.135798
    2      -16.816309
    3      -15.894953
    4      -10.262390
    5       -9.416803
    6       -5.972432
    7       -5.785717
    8       -4.968860
    9       -1.118167
   10        0.554304
   11        1.353688
   12        1.742673
 
  0.4166667E-01  0.2777778E-01  0.0000000E+00  0.4629630E-02
    1      -22.125473
    2      -16.999193
    3      -15.697008
    4      -10.250107
    5       -9.406453
    6       -5.999594
    7       -5.822321
    8       -5.037693
    9       -1.034179
   10        0.568304
   11        1.367842
   12        1.757004
 
  0.8333333E-01  0.2777778E-01  0.0000000E+00  0.4629630E-02
    1      -22.094501
    2      -17.353978
    3      -15.297132
    4      -10.213279
    5       -9.375450
    6       -6.082719
    7       -5.927730
    8       -5.227818
    9       -0.798760
   10        0.610303
   11        1.410303
   12        1.800000
 
  0.1250000E+00  0.2777778E-01  0.0000000E+00  0.4629630E-02
    1      -22.042905
    2      -17.740487
    3      -14.835783
    4      -10.151962
    5       -9.323942
    6       -6.231258
    7       -6.084626
    8       -5.503467
    9       -0.448208
   10        0.680300
   11        1.481058
   12        1.871660
 
  0.1666667E+00  0.2777778E-01  0.0000000E+00  0.4629630E-02
    1      -21.970716
    2      -18.126050
    3      -14.346104
    4      -10.066254
    5       -9.252179
    6       -6.461751
    7       -6.264624
    8       -5.830153
    9       -0.017900
   10        0.778289
   11        1.580087
   12        1.971984
 
  0.2083333E+00  0.2777778E-01  0.0000000E+00  0.4629630E-02
    1      -21.877986
    2      -18.501191
    3      -13.838261
    4       -9.956295
    5       -9.160523
    6       -6.769563
    7       -6.458040
    8       -6.182893
    9        0.465925
   10        0.904260
   11        1.707359
   12        2.100971
 
  0.2500000E+00  0.2777778E-01  0.0000000E+00  0.4629630E-02
    1      -21.764778
    2      -18.862137
    3      -13.316932
    4       -9.822272
    5       -9.049459
    6       -7.137796
    7       -6.666447
    8       -6.545389
    9        0.985322
   10        1.058192
   11        1.862829
   12        2.258619
 
  0.2916667E+00  0.2777778E-01  0.0000000E+00  0.4629630E-02
    1      -21.631173
    2      -19.207000
    3      -12.785160
    4       -9.664430
    5       -8.919610
    6       -7.553813
    7       -6.907216
    8       -6.887338
    9        1.240055
   10        1.527789
   11        2.046428
   12        2.444924
 
  0.3333333E+00  0.2777778E-01  0.0000000E+00  0.4629630E-02
    1      -21.477267
    2      -19.534671
    3      -12.245496
    4       -9.483077
    5       -8.771760
    6       -8.008008
    7       -7.261595
    8       -7.116138
    9        1.449806
   10        2.083915
   11        2.258053
   12        2.659879
 
  0.3750000E+00  0.2777778E-01  0.0000000E+00  0.4629630E-02
    1      -21.303175
    2      -19.844410
    3      -11.700431
    4       -9.278596
    5       -8.606878
    6       -8.492325
    7       -7.603981
    8       -7.348119
    9        1.687387
   10        2.497525
   11        2.645498
   12        2.903470
 
  0.4166667E+00  0.2777778E-01  0.0000000E+00  0.4629630E-02
    1      -21.109034
    2      -20.135684
    3      -11.152623
    4       -9.051470
    5       -8.999810
    6       -8.426155
    7       -7.931222
    8       -7.579003
    9        1.952719
   10        2.764490
   11        3.175682
   12        3.201617
 
  0.4583333E+00  0.2777778E-01  0.0000000E+00  0.4629630E-02
    1      -20.895003
    2      -20.408081
    3      -10.605027
    4       -9.524440
    5       -8.802298
    6       -8.241063
    7       -8.231044
    8       -7.805103
    9        2.245688
   10        2.913726
   11        3.058011
   12        3.476529
 
  0.5000000E+00  0.2777778E-01  0.0000000E+00  0.2314815E-02
    1      -20.661277
    2      -20.661277
    3      -10.061008
    4      -10.061008
    5       -8.531840
    6       -8.531840
    7       -8.023312
    8       -8.023312
    9        2.566124
   10        2.566124
   11        3.373955
   12        3.374297
 
  0.0000000E+00  0.5555556E-01  0.0000000E+00  0.2314815E-02
    1      -22.096017
    2      -16.782051
    3      -15.862547
    4      -10.215075
    5       -9.590452
    6       -6.132444
    7       -5.879197
    8       -4.920609
    9       -1.134912
   10        0.608191
   11        1.408313
   12        1.797979
 
  0.4166667E-01  0.5555556E-01  0.0000000E+00  0.4629630E-02
    1      -22.085695
    2      -16.964545
    3      -15.665170
    4      -10.202806
    5       -9.580020
    6       -6.166467
    7       -5.906870
    8       -4.989949
    9       -1.050800
   10        0.622193
   11        1.422464
   12        1.812312
 
  0.8333333E-01  0.5555556E-01  0.0000000E+00  0.4629630E-02
    1      -22.054736
    2      -17.318662
    3      -15.266498
    4      -10.166018
    5       -9.548770
    6       -6.266937
    7       -5.989082
    8       -5.181218
    9       -0.815399
   10        0.664199
   11        1.464915
   12        1.855309
 
  0.1250000E+00  0.5555556E-01  0.0000000E+00  0.4629630E-02
    1      -22.003161
    2      -17.704532
    3      -14.806707
    4      -10.104768
    5       -9.496832
    6       -6.430442
    7       -6.122320
    8       -5.458006
    9       -0.465646
   10        0.734209
   11        1.535654
   12        1.926971
 
  0.1666667E+00  0.5555556E-01  0.0000000E+00  0.4629630E-02
    1      -21.931005
    2      -18.089531
    3      -14.318931
    4      -10.019153
    5       -9.424431
    6       -6.654029
    7       -6.298901
    8       -5.785502
    9       -0.037246
   10        0.832218
   11        1.634661
   12        2.027312
 
  0.2083333E+00  0.5555556E-01  0.0000000E+00  0.4629630E-02
    1      -21.838317
    2      -18.464181
    3      -13.813389
    4       -9.909315
    5       -9.331888
    6       -6.935565
    7       -6.507774
    8       -6.138688
    9        0.443527
   10        0.958214
   11        1.761906
   12        2.156292
 
  0.2500000E+00  0.5555556E-01  0.0000000E+00  0.4629630E-02
    1      -21.725161
    2      -18.824702
    3      -13.294841
    4       -9.775440
    5       -9.219633
    6       -7.271986
    7       -6.737536
    8       -6.501340
    9        0.958819
   10        1.112176
   11        1.917343
   12        2.313947
 
  0.2916667E+00  0.5555556E-01  0.0000000E+00  0.4629630E-02
    1      -21.591622
    2      -19.169200
    3      -12.766440
    4       -9.617773
    5       -9.088217
    6       -7.657917
    7       -6.978938
    8       -6.863123
    9        1.294073
   10        1.496265
   11        2.100908
   12        2.500262
 
  0.3333333E+00  0.5555556E-01  0.0000000E+00  0.4629630E-02
    1      -21.437793
    2      -19.496556
    3      -12.230873
    4       -9.436621
    5       -8.938330
    6       -8.086152
    7       -7.225244
    8       -7.217330
    9        1.503863
   10        2.046652
   11        2.312502
   12        2.715229
 
  0.3750000E+00  0.5555556E-01  0.0000000E+00  0.4629630E-02
    1      -21.263794
    2      -19.806023
    3      -11.690809
    4       -9.232369
    5       -8.770818
    6       -8.548932
    7       -7.559468
    8       -7.471467
    9        1.741487
   10        2.551958
   11        2.602205
   12        2.958838
 
  0.4166667E+00  0.5555556E-01  0.0000000E+00  0.4629630E-02
    1      -21.069761
    2      -20.097063
    3      -11.149128
    4       -9.038855
    5       -9.005495
    6       -8.586717
    7       -7.886421
    8       -7.713702
    9        2.006870
   10        2.818944
   11        3.153883
   12        3.231078
 
  0.4583333E+00  0.5555556E-01  0.0000000E+00  0.4629630E-02
    1      -20.855858
    2      -20.369259
    3      -10.609066
    4       -9.549264
    5       -8.756598
    6       -8.387281
    7       -8.195959
    8       -7.948765
    9        2.299908
   10        2.968254
   11        3.112570
   12        3.531946
 
  0.5000000E+00  0.5555556E-01  0.0000000E+00  0.2314815E-02
    1      -20.622281
    2      -20.622281
    3      -10.074341
    4      -10.074341
    5       -8.486432
    6       -8.486432
    7       -8.174022
    8       -8.174022
    9        2.620450
   10        2.620450
   11        3.428557
   12        3.428560
 
  0.0000000E+00  0.8333333E-01  0.0000000E+00  0.2314815E-02
    1      -22.029753
    2      -16.724968
    3      -15.809191
    4      -10.136327
    5       -9.865043
    6       -6.386095
    7       -6.032022
    8       -4.840255
    9       -1.165492
   10        0.698024
   11        1.499330
   12        1.890162
 
  0.4166667E-01  0.8333333E-01  0.0000000E+00  0.4629630E-02
    1      -22.019438
    2      -16.906864
    3      -15.612725
    4      -10.124081
    5       -9.854456
    6       -6.425912
    7       -6.050632
    8       -4.910497
    9       -1.081141
   10        0.712028
   11        1.513476
   12        1.904495
 
  0.8333333E-01  0.8333333E-01  0.0000000E+00  0.4629630E-02
    1      -21.988501
    2      -17.259899
    3      -15.216091
    4      -10.087362
    5       -9.822729
    6       -6.538835
    7       -6.111112
    8       -5.103777
    9       -0.845718
   10        0.754040
   11        1.555909
   12        1.947493
 
  0.1250000E+00  0.8333333E-01  0.0000000E+00  0.4629630E-02
    1      -21.936964
    2      -17.644707
    3      -14.759000
    4      -10.026226
    5       -9.769961
    6       -6.712119
    7       -6.220682
    8       -5.382548
    9       -0.497302
   10        0.824061
   11        1.626619
   12        2.019158
 
  0.1666667E+00  0.8333333E-01  0.0000000E+00  0.4629630E-02
    1      -21.864861
    2      -18.028758
    3      -14.274564
    4       -9.940772
    5       -9.696322
    6       -6.935146
    7       -6.381152
    8       -5.711436
    9       -0.072165
   10        0.922088
   11        1.725585
   12        2.119490
 
  0.2083333E+00  0.8333333E-01  0.0000000E+00  0.4629630E-02
    1      -21.772243
    2      -18.402581
    3      -13.773102
    4       -9.831140
    5       -9.602052
    6       -7.201466
    7       -6.587580
    8       -6.065374
    9        0.403375
   10        1.048111
   11        1.852777
   12        2.248489
 
  0.2500000E+00  0.8333333E-01  0.0000000E+00  0.4629630E-02
    1      -21.659177
    2      -18.762388
    3      -13.259533
    4       -9.697519
    5       -9.487467
    6       -7.508274
    7       -6.829711
    8       -6.428277
    9        0.911633
   10        1.202108
   11        2.008153
   12        2.406158
 
  0.2916667E+00  0.8333333E-01  0.0000000E+00  0.4629630E-02
    1      -21.525745
    2      -19.106269
    3      -12.737228
    4       -9.540152
    5       -9.352962
    6       -7.855029
    7       -7.094372
    8       -6.789966
    9        1.384047
   10        1.440474
   11        2.191651
   12        2.592481
 
  0.3333333E+00  0.8333333E-01  0.0000000E+00  0.4629630E-02
    1      -21.372047
    2      -19.433094
    3      -12.209158
    4       -9.359348
    5       -9.199018
    6       -8.241290
    7       -7.368508
    8       -7.143861
    9        1.593883
   10        1.980984
   11        2.403182
   12        2.807464
 
  0.3750000E+00  0.8333333E-01  0.0000000E+00  0.4629630E-02
    1      -21.198202
    2      -19.742104
    3      -11.678362
    4       -9.155487
    5       -9.026208
    6       -8.664750
    7       -7.641790
    8       -7.485560
    9        1.831557
   10        2.525936
   11        2.642597
   12        3.051095
 
  0.4166667E+00  0.8333333E-01  0.0000000E+00  0.4629630E-02
    1      -21.004351
    2      -20.032750
    3      -11.148196
    4       -9.120759
    5       -8.929048
    6       -8.835203
    7       -7.907469
    8       -7.812008
    9        2.096997
   10        2.909610
   11        3.068206
   12        3.323359
 
  0.4583333E+00  0.8333333E-01  0.0000000E+00  0.4629630E-02
    1      -20.790663
    2      -20.304607
    3      -10.622511
    4       -9.603227
    5       -8.680625
    6       -8.626786
    7       -8.161602
    8       -8.121017
    9        2.390106
   10        3.058752
   11        3.203433
   12        3.612803
 
  0.5000000E+00  0.8333333E-01  0.0000000E+00  0.2314815E-02
    1      -20.557337
    2      -20.557337
    3      -10.105786
    4      -10.105786
    5       -8.410965
    6       -8.410965
    7       -8.401877
    8       -8.401877
    9        2.710755
   10        2.710755
   11        3.519497
   12        3.519533
 
  0.0000000E+00  0.1111111E+00  0.0000000E+00  0.2314815E-02
    1      -21.937070
    2      -16.645081
    3      -15.736006
    4      -10.222099
    5      -10.026313
    6       -6.717464
    7       -6.240004
    8       -4.727898
    9       -1.213842
   10        0.823828
   11        1.626704
   12        2.019224
 
  0.4166667E-01  0.1111111E+00  0.0000000E+00  0.4629630E-02
    1      -21.926766
    2      -16.826261
    3      -15.540744
    4      -10.211244
    5      -10.014101
    6       -6.761812
    7       -6.249862
    8       -4.799529
    9       -1.129067
   10        0.837830
   11        1.640840
   12        2.033557
 
  0.8333333E-01  0.1111111E+00  0.0000000E+00  0.4629630E-02
    1      -21.895860
    2      -17.177850
    3      -15.147042
    4      -10.178694
    5       -9.977481
    6       -6.884392
    7       -6.288625
    8       -4.995871
    9       -0.893474
   10        0.879838
   11        1.683244
   12        2.076555
 
  0.1250000E+00  0.1111111E+00  0.0000000E+00  0.4629630E-02
    1      -21.844375
    2      -17.561173
    3      -14.693992
    4      -10.124489
    5       -9.916512
    6       -7.065941
    7       -6.371664
    8       -5.277608
    9       -0.546916
   10        0.949857
   11        1.753905
   12        2.148220
 
  0.1666667E+00  0.1111111E+00  0.0000000E+00  0.4629630E-02
    1      -21.772347
    2      -17.943880
    3      -14.214660
    4      -10.048695
    5       -9.831292
    6       -7.291258
    7       -6.507610
    8       -5.608533
    9       -0.126493
   10        1.047887
   11        1.852803
   12        2.248554
 
  0.2083333E+00  0.1111111E+00  0.0000000E+00  0.4629630E-02
    1      -21.679829
    2      -18.316526
    3      -13.719532
    4       -9.951394
    5       -9.721963
    6       -7.550690
    7       -6.697009
    8       -5.963538
    9        0.341455
   10        1.173923
   11        1.979908
   12        2.377559
 
  0.2500000E+00  0.1111111E+00  0.0000000E+00  0.4629630E-02
    1      -21.566888
    2      -18.675314
    3      -13.213822
    4       -9.832674
    5       -9.588713
    6       -7.838866
    7       -6.934085
    8       -6.326763
    9        0.839516
   10        1.327944
   11        2.135178
   12        2.535232
 
  0.2916667E+00  0.1111111E+00  0.0000000E+00  0.4629630E-02
    1      -21.433609
    2      -19.018316
    3      -12.701307
    4       -9.692612
    5       -9.431786
    6       -8.153882
    7       -7.208348
    8       -6.688273
    9        1.355903
   10        1.509914
   11        2.318556
   12        2.721571
 
  0.3333333E+00  0.1111111E+00  0.0000000E+00  0.4629630E-02
    1      -21.280095
    2      -19.344384
    3      -12.185508
    4       -9.531251
    5       -9.251490
    6       -8.496624
    7       -7.506137
    8       -7.041676
    9        1.719786
   10        1.882091
   11        2.529962
   12        2.936569
 
  0.3750000E+00  0.1111111E+00  0.0000000E+00  0.4629630E-02
    1      -21.106468
    2      -19.652743
    3      -11.670195
    4       -9.348570
    5       -9.048206
    6       -8.869502
    7       -7.812662
    8       -7.382702
    9        1.957500
   10        2.411408
   11        2.769275
   12        3.180220
 
  0.4166667E+00  0.1111111E+00  0.0000000E+00  0.4629630E-02
    1      -20.912875
    2      -19.942829
    3      -11.159675
    4       -9.274336
    5       -9.144458
    6       -8.822407
    7       -8.114641
    8       -7.708389
    9        2.222979
   10        2.938085
   11        3.036283
   12        3.452524
 
  0.4583333E+00  0.1111111E+00  0.0000000E+00  0.4629630E-02
    1      -20.699491
    2      -20.214205
    3      -10.658963
    4       -9.710366
    5       -8.918735
    6       -8.574684
    7       -8.402581
    8       -8.016606
    9        2.516131
   10        3.184938
   11        3.330408
   12        3.455194
 
  0.5000000E+00  0.1111111E+00  0.0000000E+00  0.2314815E-02
    1      -20.466521
    2      -20.466521
    3      -10.173805
    4      -10.173805
    5       -8.671293
    6       -8.671293
    7       -8.305772
    8       -8.305772
    9        2.836838
   10        2.836838
   11        3.646402
   12        3.646415
 
  0.0000000E+00  0.1388889E+00  0.0000000E+00  0.2314815E-02
    1      -21.818058
    2      -16.542419
    3      -15.644905
    4      -10.641072
    5       -9.885274
    6       -7.109502
    7       -6.497778
    8       -4.583682
    9       -1.285257
   10        0.985618
   11        1.790376
   12        2.185173
 
  0.4166667E-01  0.1388889E+00  0.0000000E+00  0.4629630E-02
    1      -21.807768
    2      -16.722911
    3      -15.451059
    4      -10.629768
    5       -9.873107
    6       -7.157638
    7       -6.498955
    8       -4.657353
    9       -1.199736
   10        0.999613
   11        1.804497
   12        2.199504
 
  0.8333333E-01  0.1388889E+00  0.0000000E+00  0.4629630E-02
    1      -21.776902
    2      -17.072770
    3      -15.061322
    4      -10.595831
    5       -9.836623
    6       -7.288527
    7       -6.515326
    8       -4.858116
    9       -0.963600
   10        1.041603
   11        1.846856
   12        2.242499
 
  0.1250000E+00  0.1388889E+00  0.0000000E+00  0.4629630E-02
    1      -21.725486
    2      -17.454188
    3      -14.614051
    4      -10.539190
    5       -9.775881
    6       -7.477911
    7       -6.568923
    8       -5.144019
    9       -0.619330
   10        1.111596
   11        1.917440
   12        2.314160
 
  0.1666667E+00  0.1388889E+00  0.0000000E+00  0.4629630E-02
    1      -21.653556
    2      -17.835134
    3      -14.142234
    4      -10.459704
    5       -9.690980
    6       -7.707289
    7       -6.674048
    8       -5.477716
    9       -0.205142
   10        1.209603
   11        2.016227
   12        2.414492
 
  0.2083333E+00  0.1388889E+00  0.0000000E+00  0.4629630E-02
    1      -21.561167
    2      -18.206226
    3      -13.656666
    4      -10.357138
    5       -9.582062
    6       -7.964933
    7       -6.835903
    8       -5.834105
    9        0.252684
   10        1.335621
   11        2.143186
   12        2.543496
 
  0.2500000E+00  0.1388889E+00  0.0000000E+00  0.4629630E-02
    1      -21.448388
    2      -18.563666
    3      -13.163108
    4      -10.231108
    5       -9.449319
    6       -8.243645
    7       -7.052865
    8       -6.197682
    9        0.737185
   10        1.489635
   11        2.298273
   12        2.701172
 
  0.2916667E+00  0.1388889E+00  0.0000000E+00  0.4629630E-02
    1      -21.315308
    2      -18.905507
    3      -12.666125
    4      -10.081023
    5       -9.292993
    6       -8.539476
    7       -7.318222
    8       -6.558862
    9        1.237081
   10        1.671611
   11        2.481430
   12        2.887519
 
  0.3333333E+00  0.1388889E+00  0.0000000E+00  0.4629630E-02
    1      -21.162032
    2      -19.230576
    3      -12.170318
    4       -9.905998
    5       -9.113393
    6       -8.851263
    7       -7.621432
    8       -6.911521
    9        1.744363
   10        1.881495
   11        2.692582
   12        3.102529
 
  0.3750000E+00  0.1388889E+00  0.0000000E+00  0.4629630E-02
    1      -20.988690
    2      -19.538077
    3      -11.680854
    4       -9.704800
    5       -9.180464
    6       -8.910900
    7       -7.949130
    8       -7.251572
    9        2.119221
   10        2.252922
   11        2.931629
   12        3.346196
 
  0.4166667E+00  0.1388889E+00  0.0000000E+00  0.4629630E-02
    1      -20.795435
    2      -19.827426
    3      -11.203674
    4       -9.530751
    5       -9.475911
    6       -8.685982
    7       -8.286224
    8       -7.576175
    9        2.384707
   10        2.757792
   11        3.198439
   12        3.618515
 
  0.4583333E+00  0.1388889E+00  0.0000000E+00  0.4629630E-02
    1      -20.582448
    2      -20.098169
    3      -10.745252
    4       -9.906731
    5       -9.217960
    6       -8.617644
    7       -8.439225
    8       -7.883278
    9        2.677857
   10        3.254704
   11        3.346645
   12        3.492796
 
  0.5000000E+00  0.1388889E+00  0.0000000E+00  0.2314815E-02
    1      -20.349943
    2      -20.349943
    3      -10.311638
    4      -10.311638
    5       -8.930849
    6       -8.930849
    7       -8.171352
    8       -8.171352
    9        2.998553
   10        2.998553
   11        3.738268
   12        3.740637
 
  0.0000000E+00  0.1666667E+00  0.0000000E+00  0.2314815E-02
    1      -21.672839
    2      -16.417023
    3      -15.539104
    4      -11.101293
    5       -9.713532
    6       -7.546268
    7       -6.799188
    8       -4.407793
    9       -1.386035
   10        1.183393
   11        1.990268
   12        2.388010
 
  0.4166667E-01  0.1666667E+00  0.0000000E+00  0.4629630E-02
    1      -21.662565
    2      -16.597101
    3      -15.346784
    4      -11.089221
    5       -9.701424
    6       -7.597831
    7       -6.791655
    8       -4.484445
    9       -1.299179
   10        1.197376
   11        2.004365
   12        2.402339
 
  0.8333333E-01  0.1666667E+00  0.0000000E+00  0.4629630E-02
    1      -21.631750
    2      -16.945067
    3      -14.962359
    4      -11.052905
    5       -9.665118
    6       -7.736427
    7       -6.785000
    8       -4.691497
    9       -1.061681
   10        1.239331
   11        2.046651
   12        2.445328
 
  0.1250000E+00  0.1666667E+00  0.0000000E+00  0.4629630E-02
    1      -21.580419
    2      -17.324149
    3      -14.523416
    4      -10.992039
    5       -9.604673
    6       -7.933607
    7       -6.806961
    8       -4.983096
    9       -0.719887
   10        1.309272
   11        2.117109
   12        2.516980
 
  0.1666667E+00  0.1666667E+00  0.0000000E+00  0.4629630E-02
    1      -21.508609
    2      -17.702873
    3      -14.062858
    4      -10.906054
    5       -9.520191
    6       -8.168227
    7       -6.876760
    8       -5.320408
    9       -0.313432
   10        1.407217
   11        2.215713
   12        2.617301
 
  0.2083333E+00  0.1666667E+00  0.0000000E+00  0.4629630E-02
    1      -21.416379
    2      -18.071991
    3      -13.592100
    4      -10.794035
    5       -9.411815
    6       -8.427143
    7       -7.003668
    8       -5.678473
    9        0.131666
   10        1.533174
   11        2.342420
   12        2.746295
 
  0.2500000E+00  0.1666667E+00  0.0000000E+00  0.4629630E-02
    1      -21.303801
    2      -18.427715
    3      -13.117991
    4      -10.654596
    5       -9.279738
    6       -8.702123
    7       -7.189672
    8       -6.042341
    9        0.599180
   10        1.687137
   11        2.497173
   12        2.903966
 
  0.2916667E+00  0.1666667E+00  0.0000000E+00  0.4629630E-02
    1      -21.170966
    2      -18.768080
    3      -12.646647
    4      -10.485746
    5       -9.124206
    6       -8.988021
    7       -7.431381
    8       -6.402930
    9        1.078596
   10        1.869074
   11        2.679890
   12        3.090313
 
  0.3333333E+00  0.1666667E+00  0.0000000E+00  0.4629630E-02
    1      -21.017988
    2      -19.091882
    3      -12.184625
    4      -10.284841
    5       -9.282008
    6       -8.945528
    7       -7.721368
    8       -6.754477
    9        1.562615
   10        2.078931
   11        2.890457
   12        3.305330
 
  0.3750000E+00  0.1666667E+00  0.0000000E+00  0.4629630E-02
    1      -20.845001
    2      -19.398297
    3      -11.739084
    4      -10.048893
    5       -9.583358
    6       -8.744083
    7       -8.049224
    8       -7.093139
    9        2.045811
   10        2.316633
   11        3.128686
   12        3.549008
 
  0.4166667E+00  0.1666667E+00  0.0000000E+00  0.4629630E-02
    1      -20.652168
    2      -19.686715
    3      -11.316941
    4       -9.893533
    5       -9.775697
    6       -8.520340
    7       -8.402304
    8       -7.416234
    9        2.523874
   10        2.582087
   11        3.394150
   12        3.821337
 
  0.4583333E+00  0.1666667E+00  0.0000000E+00  0.4629630E-02
    1      -20.439679
    2      -19.956664
    3      -10.922888
    4      -10.216288
    5       -9.465998
    6       -8.766254
    7       -8.274876
    8       -7.721810
    9        2.875185
   10        2.993118
   11        3.543779
   12        3.682621
 
  0.5000000E+00  0.1666667E+00  0.0000000E+00  0.2314815E-02
    1      -20.207756
    2      -20.207756
    3      -10.557341
    4      -10.557341
    5       -9.125721
    6       -9.125721
    7       -8.008401
    8       -8.008401
    9        3.195801
   10        3.195801
   11        3.449567
   12        3.452721
 