<?xml version="1.0" encoding="ISO-8859-1"?>
<modeling>
 <generator>
  <i name="program" type="string">vasp </i>
  <i name="version" type="string">5.3.5  </i>
  <i name="subversion" type="string">31Mar14 (build Mar 02 2015 18:14:16) complex                          parallel </i>
  <i name="platform" type="string">LinuxIFC </i>
  <i name="date" type="string">2018 08 09 </i>
  <i name="time" type="string">20:03:22 </i>
 </generator>
 <incar>
  <i type="string" name="SYSTEM">  gr</i>
  <i type="string" name="PREC">accurate : accuracy</i>
  <i type="string" name="ALGO"> FAST.</i>
  <i type="int" name="NELM">   100</i>
  <i type="int" name="NELMDL">    -3</i>
  <i type="int" name="NELMIN">     5</i>
  <i type="int" name="IBRION">     1</i>
  <i name="EDIFF">      0.00000000</i>
  <i name="EDIFFG">     -0.00000100</i>
  <i type="int" name="NSW">   400</i>
  <i type="int" name="ISIF">     2</i>
  <i name="ENCUT">   2000.00000000</i>
  <i type="int" name="ISMEAR">     0</i>
  <i name="SIGMA">      0.05000000</i>
  <i type="int" name="NWRITE">     2</i>
  <i type="logical" name="LWAVE"> F  </i>
  <i type="logical" name="LCHARG"> F  </i>
  <i type="int" name="NELM">   100</i>
 </incar>
 <kpoints>
  <generation param="Gamma">
   <v type="int" name="divisions">      24       36        1 </v>
   <v name="usershift">      0.00000000       0.00000000       0.00000000 </v>
   <v name="genvec1">      0.04166667       0.00000000       0.00000000 </v>
   <v name="genvec2">      0.00000000       0.02777778       0.00000000 </v>
   <v name="genvec3">      0.00000000       0.00000000       1.00000000 </v>
   <v name="shift">      0.00000000       0.00000000       0.00000000 </v>
  </generation>
  <varray name="kpointlist" >
   <v>       0.00000000       0.00000000       0.00000000 </v>
   <v>       0.04166667       0.00000000       0.00000000 </v>
   <v>       0.08333333       0.00000000       0.00000000 </v>
   <v>       0.12500000       0.00000000       0.00000000 </v>
   <v>       0.16666667       0.00000000       0.00000000 </v>
   <v>       0.20833333       0.00000000       0.00000000 </v>
   <v>       0.25000000       0.00000000       0.00000000 </v>
   <v>       0.29166667       0.00000000       0.00000000 </v>
   <v>       0.33333333       0.00000000       0.00000000 </v>
   <v>       0.37500000       0.00000000       0.00000000 </v>
   <v>       0.41666667       0.00000000       0.00000000 </v>
   <v>       0.45833333       0.00000000       0.00000000 </v>
   <v>       0.50000000       0.00000000       0.00000000 </v>
   <v>       0.00000000       0.02777778       0.00000000 </v>
   <v>       0.04166667       0.02777778       0.00000000 </v>
   <v>       0.08333333       0.02777778       0.00000000 </v>
   <v>       0.12500000       0.02777778       0.00000000 </v>
   <v>       0.16666667       0.02777778       0.00000000 </v>
   <v>       0.20833333       0.02777778       0.00000000 </v>
   <v>       0.25000000       0.02777778       0.00000000 </v>
   <v>       0.29166667       0.02777778       0.00000000 </v>
   <v>       0.33333333       0.02777778       0.00000000 </v>
   <v>       0.37500000       0.02777778       0.00000000 </v>
   <v>       0.41666667       0.02777778       0.00000000 </v>
   <v>       0.45833333       0.02777778       0.00000000 </v>
   <v>       0.50000000       0.02777778       0.00000000 </v>
   <v>       0.00000000       0.05555556       0.00000000 </v>
   <v>       0.04166667       0.05555556       0.00000000 </v>
   <v>       0.08333333       0.05555556       0.00000000 </v>
   <v>       0.12500000       0.05555556       0.00000000 </v>
   <v>       0.16666667       0.05555556       0.00000000 </v>
   <v>       0.20833333       0.05555556       0.00000000 </v>
   <v>       0.25000000       0.05555556       0.00000000 </v>
   <v>       0.29166667       0.05555556       0.00000000 </v>
   <v>       0.33333333       0.05555556       0.00000000 </v>
   <v>       0.37500000       0.05555556       0.00000000 </v>
   <v>       0.41666667       0.05555556       0.00000000 </v>
   <v>       0.45833333       0.05555556       0.00000000 </v>
   <v>       0.50000000       0.05555556       0.00000000 </v>
   <v>       0.00000000       0.08333333       0.00000000 </v>
   <v>       0.04166667       0.08333333       0.00000000 </v>
   <v>       0.08333333       0.08333333       0.00000000 </v>
   <v>       0.12500000       0.08333333       0.00000000 </v>
   <v>       0.16666667       0.08333333       0.00000000 </v>
   <v>       0.20833333       0.08333333       0.00000000 </v>
   <v>       0.25000000       0.08333333       0.00000000 </v>
   <v>       0.29166667       0.08333333       0.00000000 </v>
   <v>       0.33333333       0.08333333       0.00000000 </v>
   <v>       0.37500000       0.08333333       0.00000000 </v>
   <v>       0.41666667       0.08333333       0.00000000 </v>
   <v>       0.45833333       0.08333333       0.00000000 </v>
   <v>       0.50000000       0.08333333       0.00000000 </v>
   <v>       0.00000000       0.11111111       0.00000000 </v>
   <v>       0.04166667       0.11111111       0.00000000 </v>
   <v>       0.08333333       0.11111111       0.00000000 </v>
   <v>       0.12500000       0.11111111       0.00000000 </v>
   <v>       0.16666667       0.11111111       0.00000000 </v>
   <v>       0.20833333       0.11111111       0.00000000 </v>
   <v>       0.25000000       0.11111111       0.00000000 </v>
   <v>       0.29166667       0.11111111       0.00000000 </v>
   <v>       0.33333333       0.11111111       0.00000000 </v>
   <v>       0.37500000       0.11111111       0.00000000 </v>
   <v>       0.41666667       0.11111111       0.00000000 </v>
   <v>       0.45833333       0.11111111       0.00000000 </v>
   <v>       0.50000000       0.11111111       0.00000000 </v>
   <v>       0.00000000       0.13888889       0.00000000 </v>
   <v>       0.04166667       0.13888889       0.00000000 </v>
   <v>       0.08333333       0.13888889       0.00000000 </v>
   <v>       0.12500000       0.13888889       0.00000000 </v>
   <v>       0.16666667       0.13888889       0.00000000 </v>
   <v>       0.20833333       0.13888889       0.00000000 </v>
   <v>       0.25000000       0.13888889       0.00000000 </v>
   <v>       0.29166667       0.13888889       0.00000000 </v>
   <v>       0.33333333       0.13888889       0.00000000 </v>
   <v>       0.37500000       0.13888889       0.00000000 </v>
   <v>       0.41666667       0.13888889       0.00000000 </v>
   <v>       0.45833333       0.13888889       0.00000000 </v>
   <v>       0.50000000       0.13888889       0.00000000 </v>
   <v>       0.00000000       0.16666667       0.00000000 </v>
   <v>       0.04166667       0.16666667       0.00000000 </v>
   <v>       0.08333333       0.16666667       0.00000000 </v>
   <v>       0.12500000       0.16666667       0.00000000 </v>
   <v>       0.16666667       0.16666667       0.00000000 </v>
   <v>       0.20833333       0.16666667       0.00000000 </v>
   <v>       0.25000000       0.16666667       0.00000000 </v>
   <v>       0.29166667       0.16666667       0.00000000 </v>
   <v>       0.33333333       0.16666667       0.00000000 </v>
   <v>       0.37500000       0.16666667       0.00000000 </v>
   <v>       0.41666667       0.16666667       0.00000000 </v>
   <v>       0.45833333       0.16666667       0.00000000 </v>
   <v>       0.50000000       0.16666667       0.00000000 </v>
   <v>       0.00000000       0.19444444       0.00000000 </v>
   <v>       0.04166667       0.19444444       0.00000000 </v>
   <v>       0.08333333       0.19444444       0.00000000 </v>
   <v>       0.12500000       0.19444444       0.00000000 </v>
   <v>       0.16666667       0.19444444       0.00000000 </v>
   <v>       0.20833333       0.19444444       0.00000000 </v>
   <v>       0.25000000       0.19444444       0.00000000 </v>
   <v>       0.29166667       0.19444444       0.00000000 </v>
   <v>       0.33333333       0.19444444       0.00000000 </v>
   <v>       0.37500000       0.19444444       0.00000000 </v>
   <v>       0.41666667       0.19444444       0.00000000 </v>
   <v>       0.45833333       0.19444444       0.00000000 </v>
   <v>       0.50000000       0.19444444       0.00000000 </v>
   <v>       0.00000000       0.22222222       0.00000000 </v>
   <v>       0.04166667       0.22222222       0.00000000 </v>
   <v>       0.08333333       0.22222222       0.00000000 </v>
   <v>       0.12500000       0.22222222       0.00000000 </v>
   <v>       0.16666667       0.22222222       0.00000000 </v>
   <v>       0.20833333       0.22222222       0.00000000 </v>
   <v>       0.25000000       0.22222222       0.00000000 </v>
   <v>       0.29166667       0.22222222       0.00000000 </v>
   <v>       0.33333333       0.22222222       0.00000000 </v>
   <v>       0.37500000       0.22222222       0.00000000 </v>
   <v>       0.41666667       0.22222222       0.00000000 </v>
   <v>       0.45833333       0.22222222       0.00000000 </v>
   <v>       0.50000000       0.22222222       0.00000000 </v>
   <v>       0.00000000       0.25000000       0.00000000 </v>
   <v>       0.04166667       0.25000000       0.00000000 </v>
   <v>       0.08333333       0.25000000       0.00000000 </v>
   <v>       0.12500000       0.25000000       0.00000000 </v>
   <v>       0.16666667       0.25000000       0.00000000 </v>
   <v>       0.20833333       0.25000000       0.00000000 </v>
   <v>       0.25000000       0.25000000       0.00000000 </v>
   <v>       0.29166667       0.25000000       0.00000000 </v>
   <v>       0.33333333       0.25000000       0.00000000 </v>
   <v>       0.37500000       0.25000000       0.00000000 </v>
   <v>       0.41666667       0.25000000       0.00000000 </v>
   <v>       0.45833333       0.25000000       0.00000000 </v>
   <v>       0.50000000       0.25000000       0.00000000 </v>
   <v>       0.00000000       0.27777778       0.00000000 </v>
   <v>       0.04166667       0.27777778       0.00000000 </v>
   <v>       0.08333333       0.27777778       0.00000000 </v>
   <v>       0.12500000       0.27777778       0.00000000 </v>
   <v>       0.16666667       0.27777778       0.00000000 </v>
   <v>       0.20833333       0.27777778       0.00000000 </v>
   <v>       0.25000000       0.27777778       0.00000000 </v>
   <v>       0.29166667       0.27777778       0.00000000 </v>
   <v>       0.33333333       0.27777778       0.00000000 </v>
   <v>       0.37500000       0.27777778       0.00000000 </v>
   <v>       0.41666667       0.27777778       0.00000000 </v>
   <v>       0.45833333       0.27777778       0.00000000 </v>
   <v>       0.50000000       0.27777778       0.00000000 </v>
   <v>       0.00000000       0.30555556       0.00000000 </v>
   <v>       0.04166667       0.30555556       0.00000000 </v>
   <v>       0.08333333       0.30555556       0.00000000 </v>
   <v>       0.12500000       0.30555556       0.00000000 </v>
   <v>       0.16666667       0.30555556       0.00000000 </v>
   <v>       0.20833333       0.30555556       0.00000000 </v>
   <v>       0.25000000       0.30555556       0.00000000 </v>
   <v>       0.29166667       0.30555556       0.00000000 </v>
   <v>       0.33333333       0.30555556       0.00000000 </v>
   <v>       0.37500000       0.30555556       0.00000000 </v>
   <v>       0.41666667       0.30555556       0.00000000 </v>
   <v>       0.45833333       0.30555556       0.00000000 </v>
   <v>       0.50000000       0.30555556       0.00000000 </v>
   <v>       0.00000000       0.33333333       0.00000000 </v>
   <v>       0.04166667       0.33333333       0.00000000 </v>
   <v>       0.08333333       0.33333333       0.00000000 </v>
   <v>       0.12500000       0.33333333       0.00000000 </v>
   <v>       0.16666667       0.33333333       0.00000000 </v>
   <v>       0.20833333       0.33333333       0.00000000 </v>
   <v>       0.25000000       0.33333333       0.00000000 </v>
   <v>       0.29166667       0.33333333       0.00000000 </v>
   <v>       0.33333333       0.33333333       0.00000000 </v>
   <v>       0.37500000       0.33333333       0.00000000 </v>
   <v>       0.41666667       0.33333333       0.00000000 </v>
   <v>       0.45833333       0.33333333       0.00000000 </v>
   <v>       0.50000000       0.33333333       0.00000000 </v>
   <v>       0.00000000       0.36111111       0.00000000 </v>
   <v>       0.04166667       0.36111111       0.00000000 </v>
   <v>       0.08333333       0.36111111       0.00000000 </v>
   <v>       0.12500000       0.36111111       0.00000000 </v>
   <v>       0.16666667       0.36111111       0.00000000 </v>
   <v>       0.20833333       0.36111111       0.00000000 </v>
   <v>       0.25000000       0.36111111       0.00000000 </v>
   <v>       0.29166667       0.36111111       0.00000000 </v>
   <v>       0.33333333       0.36111111       0.00000000 </v>
   <v>       0.37500000       0.36111111       0.00000000 </v>
   <v>       0.41666667       0.36111111       0.00000000 </v>
   <v>       0.45833333       0.36111111       0.00000000 </v>
   <v>       0.50000000       0.36111111       0.00000000 </v>
   <v>       0.00000000       0.38888889       0.00000000 </v>
   <v>       0.04166667       0.38888889       0.00000000 </v>
   <v>       0.08333333       0.38888889       0.00000000 </v>
   <v>       0.12500000       0.38888889       0.00000000 </v>
   <v>       0.16666667       0.38888889       0.00000000 </v>
   <v>       0.20833333       0.38888889       0.00000000 </v>
   <v>       0.25000000       0.38888889       0.00000000 </v>
   <v>       0.29166667       0.38888889       0.00000000 </v>
   <v>       0.33333333       0.38888889       0.00000000 </v>
   <v>       0.37500000       0.38888889       0.00000000 </v>
   <v>       0.41666667       0.38888889       0.00000000 </v>
   <v>       0.45833333       0.38888889       0.00000000 </v>
   <v>       0.50000000       0.38888889       0.00000000 </v>
   <v>       0.00000000       0.41666667       0.00000000 </v>
   <v>       0.04166667       0.41666667       0.00000000 </v>
   <v>       0.08333333       0.41666667       0.00000000 </v>
   <v>       0.12500000       0.41666667       0.00000000 </v>
   <v>       0.16666667       0.41666667       0.00000000 </v>
   <v>       0.20833333       0.41666667       0.00000000 </v>
   <v>       0.25000000       0.41666667       0.00000000 </v>
   <v>       0.29166667       0.41666667       0.00000000 </v>
   <v>       0.33333333       0.41666667       0.00000000 </v>
   <v>       0.37500000       0.41666667       0.00000000 </v>
   <v>       0.41666667       0.41666667       0.00000000 </v>
   <v>       0.45833333       0.41666667       0.00000000 </v>
   <v>       0.50000000       0.41666667       0.00000000 </v>
   <v>       0.00000000       0.44444444       0.00000000 </v>
   <v>       0.04166667       0.44444444       0.00000000 </v>
   <v>       0.08333333       0.44444444       0.00000000 </v>
   <v>       0.12500000       0.44444444       0.00000000 </v>
   <v>       0.16666667       0.44444444       0.00000000 </v>
   <v>       0.20833333       0.44444444       0.00000000 </v>
   <v>       0.25000000       0.44444444       0.00000000 </v>
   <v>       0.29166667       0.44444444       0.00000000 </v>
   <v>       0.33333333       0.44444444       0.00000000 </v>
   <v>       0.37500000       0.44444444       0.00000000 </v>
   <v>       0.41666667       0.44444444       0.00000000 </v>
   <v>       0.45833333       0.44444444       0.00000000 </v>
   <v>       0.50000000       0.44444444       0.00000000 </v>
   <v>       0.00000000       0.47222222       0.00000000 </v>
   <v>       0.04166667       0.47222222       0.00000000 </v>
   <v>       0.08333333       0.47222222       0.00000000 </v>
   <v>       0.12500000       0.47222222       0.00000000 </v>
   <v>       0.16666667       0.47222222       0.00000000 </v>
   <v>       0.20833333       0.47222222       0.00000000 </v>
   <v>       0.25000000       0.47222222       0.00000000 </v>
   <v>       0.29166667       0.47222222       0.00000000 </v>
   <v>       0.33333333       0.47222222       0.00000000 </v>
   <v>       0.37500000       0.47222222       0.00000000 </v>
   <v>       0.41666667       0.47222222       0.00000000 </v>
   <v>       0.45833333       0.47222222       0.00000000 </v>
   <v>       0.50000000       0.47222222       0.00000000 </v>
   <v>       0.00000000       0.50000000       0.00000000 </v>
   <v>       0.04166667       0.50000000       0.00000000 </v>
   <v>       0.08333333       0.50000000       0.00000000 </v>
   <v>       0.12500000       0.50000000       0.00000000 </v>
   <v>       0.16666667       0.50000000       0.00000000 </v>
   <v>       0.20833333       0.50000000       0.00000000 </v>
   <v>       0.25000000       0.50000000       0.00000000 </v>
   <v>       0.29166667       0.50000000       0.00000000 </v>
   <v>       0.33333333       0.50000000       0.00000000 </v>
   <v>       0.37500000       0.50000000       0.00000000 </v>
   <v>       0.41666667       0.50000000       0.00000000 </v>
   <v>       0.45833333       0.50000000       0.00000000 </v>
   <v>       0.50000000       0.50000000       0.00000000 </v>
  </varray>
  <varray name="weights" >
   <v>       0.00115741 </v>
   <v>       0.00231481 </v>
   <v>       0.00231481 </v>
   <v>       0.00231481 </v>
   <v>       0.00231481 </v>
   <v>       0.00231481 </v>
   <v>       0.00231481 </v>
   <v>       0.00231481 </v>
   <v>       0.00231481 </v>
   <v>       0.00231481 </v>
   <v>       0.00231481 </v>
   <v>       0.00231481 </v>
   <v>       0.00115741 </v>
   <v>       0.00231481 </v>
   <v>       0.00462963 </v>
   <v>       0.00462963 </v>
   <v>       0.00462963 </v>
   <v>       0.00462963 </v>
   <v>       0.00462963 </v>
   <v>       0.00462963 </v>
   <v>       0.00462963 </v>
   <v>       0.00462963 </v>
   <v>       0.00462963 </v>
   <v>       0.00462963 </v>
   <v>       0.00462963 </v>
   <v>       0.00231481 </v>
   <v>       0.00231481 </v>
   <v>       0.00462963 </v>
   <v>       0.00462963 </v>
   <v>       0.00462963 </v>
   <v>       0.00462963 </v>
   <v>       0.00462963 </v>
   <v>       0.00462963 </v>
   <v>       0.00462963 </v>
   <v>       0.00462963 </v>
   <v>       0.00462963 </v>
   <v>       0.00462963 </v>
   <v>       0.00462963 </v>
   <v>       0.00231481 </v>
   <v>       0.00231481 </v>
   <v>       0.00462963 </v>
   <v>       0.00462963 </v>
   <v>       0.00462963 </v>
   <v>       0.00462963 </v>
   <v>       0.00462963 </v>
   <v>       0.00462963 </v>
   <v>       0.00462963 </v>
   <v>       0.00462963 </v>
   <v>       0.00462963 </v>
   <v>       0.00462963 </v>
   <v>       0.00462963 </v>
   <v>       0.00231481 </v>
   <v>       0.00231481 </v>
   <v>       0.00462963 </v>
   <v>       0.00462963 </v>
   <v>       0.00462963 </v>
   <v>       0.00462963 </v>
   <v>       0.00462963 </v>
   <v>       0.00462963 </v>
   <v>       0.00462963 </v>
   <v>       0.00462963 </v>
   <v>       0.00462963 </v>
   <v>       0.00462963 </v>
   <v>       0.00462963 </v>
   <v>       0.00231481 </v>
   <v>       0.00231481 </v>
   <v>       0.00462963 </v>
   <v>       0.00462963 </v>
   <v>       0.00462963 </v>
   <v>       0.00462963 </v>
   <v>       0.00462963 </v>
   <v>       0.00462963 </v>
   <v>       0.00462963 </v>
   <v>       0.00462963 </v>
   <v>       0.00462963 </v>
   <v>       0.00462963 </v>
   <v>       0.00462963 </v>
   <v>       0.00231481 </v>
   <v>       0.00231481 </v>
   <v>       0.00462963 </v>
   <v>       0.00462963 </v>
   <v>       0.00462963 </v>
   <v>       0.00462963 </v>
   <v>       0.00462963 </v>
   <v>       0.00462963 </v>
   <v>       0.00462963 </v>
   <v>       0.00462963 </v>
   <v>       0.00462963 </v>
   <v>       0.00462963 </v>
   <v>       0.00462963 </v>
   <v>       0.00231481 </v>
   <v>       0.00231481 </v>
   <v>       0.00462963 </v>
   <v>       0.00462963 </v>
   <v>       0.00462963 </v>
   <v>       0.00462963 </v>
   <v>       0.00462963 </v>
   <v>       0.00462963 </v>
   <v>       0.00462963 </v>
   <v>       0.00462963 </v>
   <v>       0.00462963 </v>
   <v>       0.00462963 </v>
   <v>       0.00462963 </v>
   <v>       0.00231481 </v>
   <v>       0.00231481 </v>
   <v>       0.00462963 </v>
   <v>       0.00462963 </v>
   <v>       0.00462963 </v>
   <v>       0.00462963 </v>
   <v>       0.00462963 </v>
   <v>       0.00462963 </v>
   <v>       0.00462963 </v>
   <v>       0.00462963 </v>
   <v>       0.00462963 </v>
   <v>       0.00462963 </v>
   <v>       0.00462963 </v>
   <v>       0.00231481 </v>
   <v>       0.00231481 </v>
   <v>       0.00462963 </v>
   <v>       0.00462963 </v>
   <v>       0.00462963 </v>
   <v>       0.00462963 </v>
   <v>       0.00462963 </v>
   <v>       0.00462963 </v>
   <v>       0.00462963 </v>
   <v>       0.00462963 </v>
   <v>       0.00462963 </v>
   <v>       0.00462963 </v>
   <v>       0.00462963 </v>
   <v>       0.00231481 </v>
   <v>       0.00231481 </v>
   <v>       0.00462963 </v>
   <v>       0.00462963 </v>
   <v>       0.00462963 </v>
   <v>       0.00462963 </v>
   <v>       0.00462963 </v>
   <v>       0.00462963 </v>
   <v>       0.00462963 </v>
   <v>       0.00462963 </v>
   <v>       0.00462963 </v>
   <v>       0.00462963 </v>
   <v>       0.00462963 </v>
   <v>       0.00231481 </v>
   <v>       0.00231481 </v>
   <v>       0.00462963 </v>
   <v>       0.00462963 </v>
   <v>       0.00462963 </v>
   <v>       0.00462963 </v>
   <v>       0.00462963 </v>
   <v>       0.00462963 </v>
   <v>       0.00462963 </v>
   <v>       0.00462963 </v>
   <v>       0.00462963 </v>
   <v>       0.00462963 </v>
   <v>       0.00462963 </v>
   <v>       0.00231481 </v>
   <v>       0.00231481 </v>
   <v>       0.00462963 </v>
   <v>       0.00462963 </v>
   <v>       0.00462963 </v>
   <v>       0.00462963 </v>
   <v>       0.00462963 </v>
   <v>       0.00462963 </v>
   <v>       0.00462963 </v>
   <v>       0.00462963 </v>
   <v>       0.00462963 </v>
   <v>       0.00462963 </v>
   <v>       0.00462963 </v>
   <v>       0.00231481 </v>
   <v>       0.00231481 </v>
   <v>       0.00462963 </v>
   <v>       0.00462963 </v>
   <v>       0.00462963 </v>
   <v>       0.00462963 </v>
   <v>       0.00462963 </v>
   <v>       0.00462963 </v>
   <v>       0.00462963 </v>
   <v>       0.00462963 </v>
   <v>       0.00462963 </v>
   <v>       0.00462963 </v>
   <v>       0.00462963 </v>
   <v>       0.00231481 </v>
   <v>       0.00231481 </v>
   <v>       0.00462963 </v>
   <v>       0.00462963 </v>
   <v>       0.00462963 </v>
   <v>       0.00462963 </v>
   <v>       0.00462963 </v>
   <v>       0.00462963 </v>
   <v>       0.00462963 </v>
   <v>       0.00462963 </v>
   <v>       0.00462963 </v>
   <v>       0.00462963 </v>
   <v>       0.00462963 </v>
   <v>       0.00231481 </v>
   <v>       0.00231481 </v>
   <v>       0.00462963 </v>
   <v>       0.00462963 </v>
   <v>       0.00462963 </v>
   <v>       0.00462963 </v>
   <v>       0.00462963 </v>
   <v>       0.00462963 </v>
   <v>       0.00462963 </v>
   <v>       0.00462963 </v>
   <v>       0.00462963 </v>
   <v>       0.00462963 </v>
   <v>       0.00462963 </v>
   <v>       0.00231481 </v>
   <v>       0.00231481 </v>
   <v>       0.00462963 </v>
   <v>       0.00462963 </v>
   <v>       0.00462963 </v>
   <v>       0.00462963 </v>
   <v>       0.00462963 </v>
   <v>       0.00462963 </v>
   <v>       0.00462963 </v>
   <v>       0.00462963 </v>
   <v>       0.00462963 </v>
   <v>       0.00462963 </v>
   <v>       0.00462963 </v>
   <v>       0.00231481 </v>
   <v>       0.00231481 </v>
   <v>       0.00462963 </v>
   <v>       0.00462963 </v>
   <v>       0.00462963 </v>
   <v>       0.00462963 </v>
   <v>       0.00462963 </v>
   <v>       0.00462963 </v>
   <v>       0.00462963 </v>
   <v>       0.00462963 </v>
   <v>       0.00462963 </v>
   <v>       0.00462963 </v>
   <v>       0.00462963 </v>
   <v>       0.00231481 </v>
   <v>       0.00115741 </v>
   <v>       0.00231481 </v>
   <v>       0.00231481 </v>
   <v>       0.00231481 </v>
   <v>       0.00231481 </v>
   <v>       0.00231481 </v>
   <v>       0.00231481 </v>
   <v>       0.00231481 </v>
   <v>       0.00231481 </v>
   <v>       0.00231481 </v>
   <v>       0.00231481 </v>
   <v>       0.00231481 </v>
   <v>       0.00115741 </v>
  </varray>
 </kpoints>
 <parameters>
  <separator name="general" >
   <i type="string" name="SYSTEM">gr</i>
   <i type="logical" name="LCOMPAT"> F  </i>
  </separator>
  <separator name="electronic" >
   <i type="string" name="PREC">accura</i>
   <i name="ENMAX">   2000.00000000</i>
   <i name="ENAUG">    644.87300000</i>
   <i name="EDIFF">      0.00000000</i>
   <i type="int" name="IALGO">    68</i>
   <i type="int" name="IWAVPR">    11</i>
   <i type="int" name="NBANDS">    12</i>
   <i name="NELECT">     16.00000000</i>
   <i type="int" name="TURBO">     0</i>
   <i type="int" name="IRESTART">     0</i>
   <i type="int" name="NREBOOT">     0</i>
   <i type="int" name="NMIN">     0</i>
   <i name="EREF">      0.00000000</i>
   <separator name="electronic smearing" >
    <i type="int" name="ISMEAR">     0</i>
    <i name="SIGMA">      0.05000000</i>
    <i name="KSPACING">      0.50000000</i>
    <i type="logical" name="KGAMMA"> T  </i>
   </separator>
   <separator name="electronic projectors" >
    <i type="logical" name="LREAL"> F  </i>
    <v name="ROPT">      0.00000000</v>
    <i type="int" name="LMAXPAW">  -100</i>
    <i type="int" name="LMAXMIX">     2</i>
    <i type="logical" name="NLSPLINE"> F  </i>
   </separator>
   <separator name="electronic startup" >
    <i type="int" name="ISTART">     0</i>
    <i type="int" name="ICHARG">     2</i>
    <i type="int" name="INIWAV">     1</i>
   </separator>
   <separator name="electronic spin" >
    <i type="int" name="ISPIN">     1</i>
    <i type="logical" name="LNONCOLLINEAR"> F  </i>
    <v name="MAGMOM">      1.00000000      1.00000000      1.00000000      1.00000000</v>
    <i name="NUPDOWN">     -1.00000000</i>
    <i type="logical" name="LSORBIT"> F  </i>
    <v name="SAXIS">      0.00000000      0.00000000      1.00000000</v>
    <i type="logical" name="LSPIRAL"> F  </i>
    <v name="QSPIRAL">      0.00000000      0.00000000      0.00000000</v>
    <i type="logical" name="LZEROZ"> F  </i>
   </separator>
   <separator name="electronic exchange-correlation" >
    <i type="logical" name="LASPH"> F  </i>
    <i type="logical" name="LMETAGGA"> F  </i>
   </separator>
   <separator name="electronic convergence" >
    <i type="int" name="NELM">   100</i>
    <i type="int" name="NELMDL">    -3</i>
    <i type="int" name="NELMIN">     5</i>
    <i name="ENINI">   2000.00000000</i>
    <separator name="electronic convergence detail" >
     <i type="logical" name="LDIAG"> T  </i>
     <i type="logical" name="LSUBROT"> F  </i>
     <i name="WEIMIN">      0.00100000</i>
     <i name="EBREAK">      0.00000000</i>
     <i name="DEPER">      0.30000000</i>
     <i type="int" name="NRMM">     4</i>
     <i name="TIME">      0.40000000</i>
    </separator>
   </separator>
   <separator name="electronic mixer" >
    <i name="AMIX">      0.40000000</i>
    <i name="BMIX">      1.00000000</i>
    <i name="AMIN">      0.10000000</i>
    <i name="AMIX_MAG">      1.60000000</i>
    <i name="BMIX_MAG">      1.00000000</i>
    <separator name="electronic mixer details" >
     <i type="int" name="IMIX">     4</i>
     <i type="int" name="MAXMIX">   -45</i>
     <i name="WC">    100.00000000</i>
     <i type="int" name="INIMIX">     1</i>
     <i type="int" name="MIXPRE">     1</i>
     <i type="int" name="MREMOVE">     5</i>
    </separator>
   </separator>
   <separator name="electronic dipolcorrection" >
    <i type="logical" name="LDIPOL"> F  </i>
    <i type="logical" name="LMONO"> F  </i>
    <i type="int" name="IDIPOL">     0</i>
    <i name="EPSILON">      1.00000000</i>
    <v name="DIPOL">   -100.00000000   -100.00000000   -100.00000000</v>
    <i name="EFIELD">      0.00000000</i>
   </separator>
  </separator>
  <separator name="grids" >
   <i type="int" name="NGX">    64</i>
   <i type="int" name="NGY">    40</i>
   <i type="int" name="NGZ">   288</i>
   <i type="int" name="NGXF">   128</i>
   <i type="int" name="NGYF">    80</i>
   <i type="int" name="NGZF">   576</i>
   <i type="logical" name="ADDGRID"> F  </i>
  </separator>
  <separator name="ionic" >
   <i type="int" name="NSW">   400</i>
   <i type="int" name="IBRION">     1</i>
   <i type="int" name="ISIF">     2</i>
   <i name="PSTRESS">      0.00000000</i>
   <i name="EDIFFG">     -0.00000100</i>
   <i type="int" name="NFREE">     0</i>
   <i name="POTIM">      0.50000000</i>
   <i name="SMASS">     -3.00000000</i>
   <i name="SCALEE">      1.00000000</i>
  </separator>
  <separator name="ionic md" >
   <i name="TEBEG">      0.00010000</i>
   <i name="TEEND">      0.00010000</i>
   <i type="int" name="NBLOCK">     1</i>
   <i type="int" name="KBLOCK">   400</i>
   <i type="int" name="NPACO">   256</i>
   <i name="APACO">     16.00000000</i>
  </separator>
  <separator name="symmetry" >
   <i type="int" name="ISYM">     2</i>
   <i name="SYMPREC">      0.00001000</i>
  </separator>
  <separator name="dos" >
   <i type="logical" name="LORBIT"> F  </i>
   <v name="RWIGS">     -1.00000000</v>
   <i type="int" name="NEDOS">   301</i>
   <i name="EMIN">     10.00000000</i>
   <i name="EMAX">    -10.00000000</i>
   <i name="EFERMI">      0.00000000</i>
  </separator>
  <separator name="writing" >
   <i type="int" name="NWRITE">     2</i>
   <i type="logical" name="LWAVE"> F  </i>
   <i type="logical" name="LCHARG"> F  </i>
   <i type="logical" name="LPARD"> F  </i>
   <i type="logical" name="LVTOT"> F  </i>
   <i type="logical" name="LVHAR"> F  </i>
   <i type="logical" name="LELF"> F  </i>
   <i type="logical" name="LOPTICS"> F  </i>
   <v name="STM">      0.00000000      0.00000000      0.00000000      0.00000000      0.00000000      0.00000000      0.00000000</v>
  </separator>
  <separator name="performance" >
   <i type="int" name="NPAR">     4</i>
   <i type="int" name="NSIM">     4</i>
   <i type="int" name="NBLK">    -1</i>
   <i type="logical" name="LPLANE"> T  </i>
   <i type="logical" name="LSCALAPACK"> F  </i>
   <i type="logical" name="LSCAAWARE"> F  </i>
   <i type="logical" name="LSCALU"> F  </i>
   <i type="logical" name="LASYNC"> F  </i>
   <i type="logical" name="LORBITALREAL"> F  </i>
  </separator>
  <separator name="miscellaneous" >
   <i type="int" name="IDIOT">     3</i>
   <i type="logical" name="LMUSIC"> F  </i>
   <v name="POMASS">     12.01100000</v>
   <v name="DARWINR">      0.00000000</v>
   <v name="DARWINV">      1.00000000</v>
   <i type="logical" name="LCORR"> T  </i>
  </separator>
  <i type="logical" name="GGA_COMPAT"> T  </i>
  <i type="logical" name="LBERRY"> F  </i>
  <i type="int" name="ICORELEVEL">     0</i>
  <i type="logical" name="LDAU"> F  </i>
  <i type="int" name="I_CONSTRAINED_M">     0</i>
  <separator name="electronic exchange-correlation" >
   <i type="string" name="GGA">--</i>
   <i type="int" name="VOSKOWN">     0</i>
   <i type="logical" name="LHFCALC"> F  </i>
   <i type="string" name="PRECFOCK"></i>
   <i type="logical" name="LSYMGRAD"> F  </i>
   <i type="logical" name="LHFONE"> F  </i>
   <i type="logical" name="LRHFCALC"> F  </i>
   <i type="logical" name="LTHOMAS"> F  </i>
   <i type="logical" name="LMODELHF"> F  </i>
   <i name="ENCUT4O">     -1.00000000</i>
   <i type="int" name="EXXOEP">     0</i>
   <i type="int" name="FOURORBIT">     0</i>
   <i name="AEXX">      0.00000000</i>
   <i name="HFALPHA">      0.00000000</i>
   <i name="MCALPHA">      0.00000000</i>
   <i name="ALDAX">      1.00000000</i>
   <i name="AGGAX">      1.00000000</i>
   <i name="ALDAC">      1.00000000</i>
   <i name="AGGAC">      1.00000000</i>
   <i type="int" name="NKREDX">     1</i>
   <i type="int" name="NKREDY">     1</i>
   <i type="int" name="NKREDZ">     1</i>
   <i type="logical" name="SHIFTRED"> F  </i>
   <i type="logical" name="ODDONLY"> F  </i>
   <i type="logical" name="EVENONLY"> F  </i>
   <i type="int" name="LMAXFOCK">     0</i>
   <i type="int" name="NMAXFOCKAE">     0</i>
   <i type="logical" name="LFOCKAEDFT"> F  </i>
   <i name="HFSCREEN">      0.00000000</i>
   <i name="HFSCREENC">      0.00000000</i>
   <i type="int" name="NBANDSGWLOW">     0</i>
  </separator>
  <separator name="vdW DFT" >
   <i type="logical" name="LUSE_VDW"> F  </i>
   <i name="Zab_VDW">     -0.84910000</i>
   <i name="PARAM1">      0.12340000</i>
   <i name="PARAM2">      1.00000000</i>
   <i name="PARAM3">      0.00000000</i>
  </separator>
  <separator name="model GW" >
   <i type="int" name="MODEL_GW">     0</i>
   <i name="MODEL_EPS0">     31.62568521</i>
   <i name="MODEL_ALPHA">      1.00000000</i>
  </separator>
  <separator name="linear response parameters" >
   <i type="logical" name="LEPSILON"> F  </i>
   <i type="logical" name="LRPA"> F  </i>
   <i type="logical" name="LNABLA"> F  </i>
   <i type="logical" name="LVEL"> F  </i>
   <i type="int" name="KINTER">     0</i>
   <i name="CSHIFT">      0.10000000</i>
   <i name="OMEGAMAX">     -1.00000000</i>
   <i name="DEG_THRESHOLD">      0.00200000</i>
  </separator>
  <separator name="orbital magnetization" >
   <i type="logical" name="NUCIND"> F  </i>
   <v name="MAGPOS">      0.00000000      0.00000000      0.00000000</v>
   <i type="logical" name="LNICSALL"> T  </i>
   <i type="logical" name="ORBITALMAG"> F  </i>
   <i type="logical" name="LMAGBLOCH"> F  </i>
   <i type="logical" name="LCHIMAG"> F  </i>
   <i type="logical" name="LGAUGE"> T  </i>
   <i type="int" name="MAGATOM">     0</i>
   <v name="MAGDIPOL">      0.00000000      0.00000000      0.00000000</v>
   <v name="AVECCONST">      0.00000000      0.00000000      0.00000000</v>
  </separator>
  <separator name="response functions" >
   <i type="logical" name="LADDER"> F  </i>
   <i type="logical" name="LFXC"> F  </i>
   <i type="logical" name="LHARTREE"> T  </i>
   <i type="int" name="IBSE">     0</i>
   <i type="logical" name="LTCTE"> F  </i>
   <i type="logical" name="LTETE"> F  </i>
   <i type="logical" name="LTRIPLET"> F  </i>
   <i type="logical" name="LFXCEPS"> F  </i>
   <i type="logical" name="LFXHEG"> F  </i>
   <i type="logical" name="L2ORDER"> F  </i>
   <i type="logical" name="LUSEW"> F  </i>
   <i name="ENCUTGW">     -2.00000000</i>
   <i name="ENCUTGWSOFT">     -2.00000000</i>
   <i name="ENCUTLF">     -1.00000000</i>
   <i type="int" name="LMAXMP2">    -1</i>
   <i name="SCISSOR">      0.00000000</i>
   <i type="int" name="NOMEGA">     0</i>
   <i type="int" name="NOMEGAR">     0</i>
   <i type="int" name="NBANDSGW">    -1</i>
   <i type="int" name="NBANDSO">    -1</i>
   <i type="int" name="NBANDSV">    -1</i>
   <i type="int" name="NELM">   100</i>
   <i type="int" name="DIM">     3</i>
   <i type="int" name="ANTIRES">     0</i>
   <i name="OMEGAMAX">    -30.00000000</i>
   <i name="OMEGAMIN">    -30.00000000</i>
   <i name="OMEGATL">   -200.00000000</i>
   <i type="int" name="OMEGAGRID">     0</i>
   <i name="CSHIFT">     -0.10000000</i>
   <i type="logical" name="SELFENERGY"> F  </i>
   <i type="logical" name="LSPECTRAL"> F  </i>
   <i type="logical" name="ODDONLYGW"> F  </i>
   <i type="logical" name="EVENONLYGW"> F  </i>
   <i type="int" name="NKREDLFX">     1</i>
   <i type="int" name="NKREDLFY">     1</i>
   <i type="int" name="NKREDLFZ">     1</i>
   <i type="int" name="MAXMEM">  1800</i>
   <i type="int" name="TELESCOPE">     0</i>
   <i type="int" name="TAUPAR">     1</i>
  </separator>
  <separator name="External order field" >
   <i name="OFIELD_KAPPA">      0.00000000</i>
   <v name="OFIELD_K">      0.00000000      0.00000000      0.00000000</v>
   <i name="OFIELD_Q6_NEAR">      0.00000000</i>
   <i name="OFIELD_Q6_FAR">      0.00000000</i>
   <i name="OFIELD_A">      0.00000000</i>
  </separator>
 </parameters>
 <atominfo>
  <atoms>       4 </atoms>
  <types>       1 </types>
  <array name="atoms" >
   <dimension dim="1">ion</dimension>
   <field type="string">element</field>
   <field type="int">atomtype</field>
   <set>
    <rc><c>C </c><c>   1</c></rc>
    <rc><c>C </c><c>   1</c></rc>
    <rc><c>C </c><c>   1</c></rc>
    <rc><c>C </c><c>   1</c></rc>
   </set>
  </array>
  <array name="atomtypes" >
   <dimension dim="1">type</dimension>
   <field type="int">atomspertype</field>
   <field type="string">element</field>
   <field>mass</field>
   <field>valence</field>
   <field type="string">pseudopotential</field>
   <set>
    <rc><c>   4</c><c>C </c><c>     12.01100000</c><c>      4.00000000</c><c> PAW_PBE C 08Apr2002                    </c></rc>
   </set>
  </array>
 </atominfo>
 <structure name="initialpos" >
  <crystal>
   <varray name="basis" >
    <v>       4.26193833       0.00000000       0.00000000 </v>
    <v>       0.00000000       2.50468072       0.00000000 </v>
    <v>       0.00000000       0.00000000      19.75100281 </v>
   </varray>
   <i name="volume">    210.83790140 </i>
   <varray name="rec_basis" >
    <v>       0.23463502       0.00000000       0.00000000 </v>
    <v>       0.00000000       0.39925248       0.00000000 </v>
    <v>       0.00000000       0.00000000       0.05063034 </v>
   </varray>
  </crystal>
  <varray name="positions" >
   <v>       0.00039382       0.00000000       0.00000000 </v>
   <v>       0.16627284       0.50000000       0.00000000 </v>
   <v>       0.50039382       0.50000000       0.00000000 </v>
   <v>       0.66627284       0.00000000       0.00000000 </v>
  </varray>
 </structure>
 <calculation>
  <scstep>
   <time name="dav">  325.38  325.73</time>
   <time name="total">  328.13  328.65</time>
   <energy>
    <i name="alphaZ">      6.18334092 </i>
    <i name="ewald">   2502.96274952 </i>
    <i name="hartreedc">  -2930.85422381 </i>
    <i name="XCdc">     54.92736209 </i>
    <i name="pawpsdc">    151.32577238 </i>
    <i name="pawaedc">   -155.92769107 </i>
    <i name="eentropy">     -0.00163627 </i>
    <i name="bandstr">    -28.99742407 </i>
    <i name="atom">    588.62352690 </i>
    <i name="e_fr_energy">    188.24177660 </i>
    <i name="e_wo_entrp">    188.24341287 </i>
    <i name="e_0_energy">    188.24259474 </i>
   </energy>
  </scstep>
  <scstep>
   <time name="dav">  484.76  485.42</time>
   <time name="total">  484.76  485.44</time>
   <energy>
    <i name="e_fr_energy">     -8.80064268 </i>
    <i name="e_wo_entrp">     -8.80032055 </i>
    <i name="e_0_energy">     -8.80048161 </i>
   </energy>
  </scstep>
  <scstep>
   <time name="dav">  374.55  375.12</time>
   <time name="total">  407.20  407.81</time>
   <energy>
    <i name="e_fr_energy">    -38.18561996 </i>
    <i name="e_wo_entrp">    -38.18561682 </i>
    <i name="e_0_energy">    -38.18561839 </i>
   </energy>
  </scstep>
  <scstep>
   <time name="diag">   87.12   87.14</time>
   <time name="diis">  355.42  356.04</time>
   <time name="orth">    3.09    3.09</time>
   <time name="total">  481.37  485.77</time>
   <energy>
    <i name="e_fr_energy">    -37.63922468 </i>
    <i name="e_wo_entrp">    -37.63922064 </i>
    <i name="e_0_energy">    -37.63922266 </i>
   </energy>
  </scstep>
  <scstep>
   <time name="diag">   87.05   87.07</time>
   <time name="diis">  355.03  355.10</time>
   <time name="orth">    3.09    3.09</time>
   <time name="total">  480.84  480.98</time>
   <energy>
    <i name="e_fr_energy">    -36.91024815 </i>
    <i name="e_wo_entrp">    -36.91024308 </i>
    <i name="e_0_energy">    -36.91024562 </i>
   </energy>
  </scstep>
  <scstep>
   <time name="diag">   87.18   87.21</time>
   <time name="diis">  388.95  389.25</time>
   <time name="orth">    3.07    3.07</time>
   <time name="total">  514.36  514.76</time>
   <energy>
    <i name="e_fr_energy">    -36.91203068 </i>
    <i name="e_wo_entrp">    -36.91202599 </i>
    <i name="e_0_energy">    -36.91202834 </i>
   </energy>
  </scstep>
  <scstep>
   <time name="diag">   87.07   87.10</time>
   <time name="diis">  354.19  354.27</time>
   <time name="orth">    3.10    3.10</time>
   <time name="total">  479.97  480.13</time>
   <energy>
    <i name="e_fr_energy">    -36.90283565 </i>
    <i name="e_wo_entrp">    -36.90283162 </i>
    <i name="e_0_energy">    -36.90283363 </i>
   </energy>
  </scstep>
  <scstep>
   <time name="diag">   87.12   87.14</time>
   <time name="diis">  355.54  355.72</time>
   <time name="orth">    3.07    3.07</time>
   <time name="total">  481.10  481.42</time>
   <energy>
    <i name="e_fr_energy">    -36.89749401 </i>
    <i name="e_wo_entrp">    -36.89748981 </i>
    <i name="e_0_energy">    -36.89749191 </i>
   </energy>
  </scstep>
  <scstep>
   <time name="diag">   87.10   87.13</time>
   <time name="diis">  350.13  350.60</time>
   <time name="orth">    3.10    3.10</time>
   <time name="total">  475.59  476.16</time>
   <energy>
    <i name="e_fr_energy">    -36.89735111 </i>
    <i name="e_wo_entrp">    -36.89734661 </i>
    <i name="e_0_energy">    -36.89734886 </i>
   </energy>
  </scstep>
  <scstep>
   <time name="diag">   87.08   87.11</time>
   <time name="diis">  350.66  351.33</time>
   <time name="orth">    3.10    3.10</time>
   <time name="total">  476.10  476.86</time>
   <energy>
    <i name="e_fr_energy">    -36.89724677 </i>
    <i name="e_wo_entrp">    -36.89724245 </i>
    <i name="e_0_energy">    -36.89724461 </i>
   </energy>
  </scstep>
  <scstep>
   <time name="diag">   87.18   87.22</time>
   <time name="diis">  353.56  353.64</time>
   <time name="orth">    3.10    3.10</time>
   <time name="total">  479.22  479.35</time>
   <energy>
    <i name="e_fr_energy">    -36.89963986 </i>
    <i name="e_wo_entrp">    -36.89963562 </i>
    <i name="e_0_energy">    -36.89963774 </i>
   </energy>
  </scstep>
  <scstep>
   <time name="diag">   87.04   87.06</time>
   <time name="diis">  352.26  352.40</time>
   <time name="orth">    3.13    3.14</time>
   <time name="total">  477.80  477.99</time>
   <energy>
    <i name="e_fr_energy">    -36.90012328 </i>
    <i name="e_wo_entrp">    -36.90011897 </i>
    <i name="e_0_energy">    -36.90012112 </i>
   </energy>
  </scstep>
  <scstep>
   <time name="diag">   87.07   87.13</time>
   <time name="diis">  356.86  358.08</time>
   <time name="orth">    3.08    3.08</time>
   <time name="total">  481.94  483.41</time>
   <energy>
    <i name="e_fr_energy">    -36.90036452 </i>
    <i name="e_wo_entrp">    -36.90036020 </i>
    <i name="e_0_energy">    -36.90036236 </i>
   </energy>
  </scstep>
  <scstep>
   <time name="diag">   86.63   87.13</time>
   <time name="diis">  352.99  354.88</time>
   <time name="orth">    3.08    3.08</time>
   <time name="total">  477.76  480.33</time>
   <energy>
    <i name="e_fr_energy">    -36.90044648 </i>
    <i name="e_wo_entrp">    -36.90044218 </i>
    <i name="e_0_energy">    -36.90044433 </i>
   </energy>
  </scstep>
  <scstep>
   <time name="diag">   86.66   87.06</time>
   <time name="diis">  353.95  354.02</time>
   <time name="orth">    3.08    3.08</time>
   <time name="total">  479.09  479.88</time>
   <energy>
    <i name="e_fr_energy">    -36.90045552 </i>
    <i name="e_wo_entrp">    -36.90045121 </i>
    <i name="e_0_energy">    -36.90045337 </i>
   </energy>
  </scstep>
  <scstep>
   <time name="diag">   87.10   87.13</time>
   <time name="diis">  351.01  351.08</time>
   <time name="orth">    3.10    3.10</time>
   <time name="total">  476.08  476.26</time>
   <energy>
    <i name="e_fr_energy">    -36.90046790 </i>
    <i name="e_wo_entrp">    -36.90046359 </i>
    <i name="e_0_energy">    -36.90046574 </i>
   </energy>
  </scstep>
  <scstep>
   <time name="diag">   87.03   87.05</time>
   <time name="diis">  363.73  364.24</time>
   <time name="orth">    3.08    3.08</time>
   <time name="total">  489.14  489.74</time>
   <energy>
    <i name="e_fr_energy">    -36.90047299 </i>
    <i name="e_wo_entrp">    -36.90046868 </i>
    <i name="e_0_energy">    -36.90047084 </i>
   </energy>
  </scstep>
  <scstep>
   <time name="diag">   87.07   87.09</time>
   <time name="diis">  349.81  349.93</time>
   <time name="orth">    3.10    3.10</time>
   <time name="total">  475.42  475.57</time>
   <energy>
    <i name="e_fr_energy">    -36.90047411 </i>
    <i name="e_wo_entrp">    -36.90046981 </i>
    <i name="e_0_energy">    -36.90047196 </i>
   </energy>
  </scstep>
  <scstep>
   <time name="diag">   87.00   87.02</time>
   <time name="diis">  361.21  361.34</time>
   <time name="orth">    3.10    3.10</time>
   <time name="total">  486.36  486.83</time>
   <energy>
    <i name="e_fr_energy">    -36.90047487 </i>
    <i name="e_wo_entrp">    -36.90047056 </i>
    <i name="e_0_energy">    -36.90047271 </i>
   </energy>
  </scstep>
  <scstep>
   <time name="diag">   86.96   86.98</time>
   <time name="diis">  272.12  272.20</time>
   <time name="orth">    3.08    3.08</time>
   <time name="total">  397.77  398.07</time>
   <energy>
    <i name="e_fr_energy">    -36.90047492 </i>
    <i name="e_wo_entrp">    -36.90047061 </i>
    <i name="e_0_energy">    -36.90047277 </i>
   </energy>
  </scstep>
  <scstep>
   <time name="diag">   86.94   87.03</time>
   <time name="diis">  270.44  270.49</time>
   <time name="orth">    3.09    3.09</time>
   <time name="total">  395.84  396.03</time>
   <energy>
    <i name="e_fr_energy">    -36.90047494 </i>
    <i name="e_wo_entrp">    -36.90047063 </i>
    <i name="e_0_energy">    -36.90047278 </i>
   </energy>
  </scstep>
  <scstep>
   <time name="diag">   87.06   87.08</time>
   <time name="diis">  241.85  241.94</time>
   <time name="orth">    3.08    3.08</time>
   <time name="total">  334.65  334.76</time>
   <energy>
    <i name="alphaZ">      6.18334092 </i>
    <i name="ewald">   2502.96274952 </i>
    <i name="hartreedc">  -2997.11633548 </i>
    <i name="XCdc">     57.29141701 </i>
    <i name="pawpsdc">    272.03272455 </i>
    <i name="pawaedc">   -277.15868432 </i>
    <i name="eentropy">     -0.00000431 </i>
    <i name="bandstr">   -189.71920974 </i>
    <i name="atom">    588.62352690 </i>
    <i name="e_fr_energy">    -36.90047494 </i>
    <i name="e_wo_entrp">    -36.90047063 </i>
    <i name="e_0_energy">    -36.90047278 </i>
   </energy>
  </scstep>
  <structure>
   <crystal>
    <varray name="basis" >
     <v>       4.26193833       0.00000000       0.00000000 </v>
     <v>       0.00000000       2.50468072       0.00000000 </v>
     <v>       0.00000000       0.00000000      19.75100281 </v>
    </varray>
    <i name="volume">    210.83790140 </i>
    <varray name="rec_basis" >
     <v>       0.23463502       0.00000000       0.00000000 </v>
     <v>       0.00000000       0.39925248       0.00000000 </v>
     <v>       0.00000000       0.00000000       0.05063034 </v>
    </varray>
   </crystal>
   <varray name="positions" >
    <v>       0.00039382       0.00000000       0.00000000 </v>
    <v>       0.16627284       0.50000000       0.00000000 </v>
    <v>       0.50039382       0.50000000       0.00000000 </v>
    <v>       0.66627284       0.00000000       0.00000000 </v>
   </varray>
  </structure>
  <varray name="forces" >
   <v>       0.00119017      -0.00000000       0.00000000 </v>
   <v>      -0.00119017       0.00000000       0.00000000 </v>
   <v>       0.00119017      -0.00000000       0.00000000 </v>
   <v>      -0.00119017      -0.00000000       0.00000000 </v>
  </varray>
  <varray name="stress" >
   <v>       0.00689343       0.00000000       0.00000000 </v>
   <v>       0.00000000     -25.15719466       0.00000000 </v>
   <v>       0.00000000       0.00000000      -0.01031187 </v>
  </varray>
  <energy>
   <i name="e_fr_energy">    -36.90047494 </i>
   <i name="e_wo_entrp">    -36.90047278 </i>
   <i name="e_0_energy">     -0.00000431 </i>
  </energy>
  <time name="totalsc">10162.5610178.78</time>
 </calculation>
 <calculation>
  <scstep>
   <time name="dav">  343.94  345.35</time>
   <time name="total">  379.19  380.60</time>
   <energy>
    <i name="alphaZ">      6.18334092 </i>
    <i name="ewald">   2502.96200335 </i>
    <i name="hartreedc">  -2997.11603093 </i>
    <i name="XCdc">     57.29139647 </i>
    <i name="pawpsdc">    272.03275553 </i>
    <i name="pawaedc">   -277.15871567 </i>
    <i name="eentropy">     -0.00000458 </i>
    <i name="bandstr">   -189.71874651 </i>
    <i name="atom">    588.62352690 </i>
    <i name="e_fr_energy">    -36.90047451 </i>
    <i name="e_wo_entrp">    -36.90046994 </i>
    <i name="e_0_energy">    -36.90047222 </i>
   </energy>
  </scstep>
  <scstep>
   <time name="diag">   87.08   87.20</time>
   <time name="diis">  350.97  352.45</time>
   <time name="orth">    3.09    3.12</time>
   <time name="total">  476.19  477.97</time>
   <energy>
    <i name="e_fr_energy">    -36.90047454 </i>
    <i name="e_wo_entrp">    -36.90046997 </i>
    <i name="e_0_energy">    -36.90047225 </i>
   </energy>
  </scstep>
  <scstep>
   <time name="diag">   86.71   87.02</time>
   <time name="diis">  356.07  356.47</time>
   <time name="orth">    3.08    3.08</time>
   <time name="total">  481.31  482.08</time>
   <energy>
    <i name="e_fr_energy">    -36.90047451 </i>
    <i name="e_wo_entrp">    -36.90046996 </i>
    <i name="e_0_energy">    -36.90047224 </i>
   </energy>
  </scstep>
  <scstep>
   <time name="diag">   87.05   87.08</time>
   <time name="diis">  360.52  360.63</time>
   <time name="orth">    3.09    3.09</time>
   <time name="total">  486.51  486.80</time>
   <energy>
    <i name="e_fr_energy">    -36.90047451 </i>
    <i name="e_wo_entrp">    -36.90046996 </i>
    <i name="e_0_energy">    -36.90047223 </i>
   </energy>
  </scstep>
  <scstep>
   <time name="diag">   87.01   87.03</time>
   <time name="diis">  279.09  279.13</time>
   <time name="orth">    3.09    3.09</time>
   <time name="total">  404.81  404.89</time>
   <energy>
    <i name="e_fr_energy">    -36.90047451 </i>
    <i name="e_wo_entrp">    -36.90046996 </i>
    <i name="e_0_energy">    -36.90047223 </i>
   </energy>
  </scstep>
  <scstep>
   <time name="diag">   87.05   87.08</time>
   <time name="diis">  234.23  234.27</time>
   <time name="orth">    3.10    3.10</time>
   <time name="total">  359.40  359.51</time>
   <energy>
    <i name="e_fr_energy">    -36.90047451 </i>
    <i name="e_wo_entrp">    -36.90046996 </i>
    <i name="e_0_energy">    -36.90047223 </i>
   </energy>
  </scstep>
  <scstep>
   <time name="diag">   86.98   87.00</time>
   <time name="diis">  234.16  234.25</time>
   <time name="orth">    3.09    3.10</time>
   <time name="total">  359.69  359.83</time>
   <energy>
    <i name="e_fr_energy">    -36.90047451 </i>
    <i name="e_wo_entrp">    -36.90046996 </i>
    <i name="e_0_energy">    -36.90047223 </i>
   </energy>
  </scstep>
  <scstep>
   <time name="diag">   86.97   86.99</time>
   <time name="diis">  218.48  218.53</time>
   <time name="orth">    3.08    3.08</time>
   <time name="total">  343.45  343.56</time>
   <energy>
    <i name="e_fr_energy">    -36.90047451 </i>
    <i name="e_wo_entrp">    -36.90046996 </i>
    <i name="e_0_energy">    -36.90047223 </i>
   </energy>
  </scstep>
  <scstep>
   <time name="diag">   86.65   87.01</time>
   <time name="diis">  206.03  207.06</time>
   <time name="orth">    3.08    3.10</time>
   <time name="total">  331.05  332.61</time>
   <energy>
    <i name="e_fr_energy">    -36.90047451 </i>
    <i name="e_wo_entrp">    -36.90046996 </i>
    <i name="e_0_energy">    -36.90047223 </i>
   </energy>
  </scstep>
  <scstep>
   <time name="diag">   86.61   87.01</time>
   <time name="diis">  198.69  199.29</time>
   <time name="orth">    3.10    3.10</time>
   <time name="total">  291.00  292.03</time>
   <energy>
    <i name="alphaZ">      6.18334092 </i>
    <i name="ewald">   2502.96200335 </i>
    <i name="hartreedc">  -2997.11571682 </i>
    <i name="XCdc">     57.29138384 </i>
    <i name="pawpsdc">    272.03146634 </i>
    <i name="pawaedc">   -277.15742094 </i>
    <i name="eentropy">     -0.00000456 </i>
    <i name="bandstr">   -189.71905356 </i>
    <i name="atom">    588.62352690 </i>
    <i name="e_fr_energy">    -36.90047451 </i>
    <i name="e_wo_entrp">    -36.90046996 </i>
    <i name="e_0_energy">    -36.90047223 </i>
   </energy>
  </scstep>
  <structure>
   <crystal>
    <varray name="basis" >
     <v>       4.26193833       0.00000000       0.00000000 </v>
     <v>       0.00000000       2.50468072       0.00000000 </v>
     <v>       0.00000000       0.00000000      19.75100281 </v>
    </varray>
    <i name="volume">    210.83790140 </i>
    <varray name="rec_basis" >
     <v>       0.23463502       0.00000000       0.00000000 </v>
     <v>       0.00000000       0.39925248       0.00000000 </v>
     <v>       0.00000000       0.00000000       0.05063034 </v>
    </varray>
   </crystal>
   <varray name="positions" >
    <v>       0.00040730      -0.00000000       0.00000000 </v>
    <v>       0.16625937       0.50000000       0.00000000 </v>
    <v>       0.50040730       0.50000000       0.00000000 </v>
    <v>       0.66625937      -0.00000000       0.00000000 </v>
   </varray>
  </structure>
  <varray name="forces" >
   <v>      -0.00484812       0.00000000       0.00000000 </v>
   <v>       0.00484812      -0.00000000      -0.00000000 </v>
   <v>      -0.00484812       0.00000000       0.00000000 </v>
   <v>       0.00484812      -0.00000000      -0.00000000 </v>
  </varray>
  <varray name="stress" >
   <v>      -0.01550888       0.00000000       0.00000000 </v>
   <v>       0.00000000     -25.14056321       0.00000000 </v>
   <v>       0.00000000       0.00000000      -0.01030166 </v>
  </varray>
  <energy>
   <i name="e_fr_energy">    -36.90047451 </i>
   <i name="e_wo_entrp">    -36.90047223 </i>
   <i name="e_0_energy">     -0.00000456 </i>
  </energy>
  <time name="totalsc"> 4017.04 4025.31</time>
 </calculation>
 <calculation>
  <scstep>
   <time name="dav">  349.88  350.28</time>
   <time name="total">  384.68  385.29</time>
   <energy>
    <i name="alphaZ">      6.18334092 </i>
    <i name="ewald">   2502.96260208 </i>
    <i name="hartreedc">  -2997.11597522 </i>
    <i name="XCdc">     57.29140090 </i>
    <i name="pawpsdc">    272.03146534 </i>
    <i name="pawaedc">   -277.15741993 </i>
    <i name="eentropy">     -0.00000434 </i>
    <i name="bandstr">   -189.71941161 </i>
    <i name="atom">    588.62352690 </i>
    <i name="e_fr_energy">    -36.90047496 </i>
    <i name="e_wo_entrp">    -36.90047062 </i>
    <i name="e_0_energy">    -36.90047279 </i>
   </energy>
  </scstep>
  <scstep>
   <time name="diag">   86.64   87.06</time>
   <time name="diis">  347.97  351.88</time>
   <time name="orth">    3.08    3.10</time>
   <time name="total">  472.42  477.06</time>
   <energy>
    <i name="e_fr_energy">    -36.90047497 </i>
    <i name="e_wo_entrp">    -36.90047062 </i>
    <i name="e_0_energy">    -36.90047280 </i>
   </energy>
  </scstep>
  <scstep>
   <time name="diag">   86.80   87.10</time>
   <time name="diis">  353.40  355.39</time>
   <time name="orth">    3.09    3.09</time>
   <time name="total">  478.64  481.09</time>
   <energy>
    <i name="e_fr_energy">    -36.90047497 </i>
    <i name="e_wo_entrp">    -36.90047061 </i>
    <i name="e_0_energy">    -36.90047279 </i>
   </energy>
  </scstep>
  <scstep>
   <time name="diag">   86.91   87.07</time>
   <time name="diis">  358.78  360.47</time>
   <time name="orth">    3.07    3.08</time>
   <time name="total">  483.43  485.96</time>
   <energy>
    <i name="e_fr_energy">    -36.90047496 </i>
    <i name="e_wo_entrp">    -36.90047061 </i>
    <i name="e_0_energy">    -36.90047279 </i>
   </energy>
  </scstep>
  <scstep>
   <time name="diag">   86.30   87.13</time>
   <time name="diis">  257.44  259.20</time>
   <time name="orth">    3.08    3.08</time>
   <time name="total">  381.80  384.77</time>
   <energy>
    <i name="e_fr_energy">    -36.90047496 </i>
    <i name="e_wo_entrp">    -36.90047061 </i>
    <i name="e_0_energy">    -36.90047279 </i>
   </energy>
  </scstep>
  <scstep>
   <time name="diag">   86.27   87.04</time>
   <time name="diis">  232.02  232.45</time>
   <time name="orth">    3.09    3.10</time>
   <time name="total">  356.86  358.13</time>
   <energy>
    <i name="e_fr_energy">    -36.90047496 </i>
    <i name="e_wo_entrp">    -36.90047061 </i>
    <i name="e_0_energy">    -36.90047279 </i>
   </energy>
  </scstep>
  <scstep>
   <time name="diag">   86.26   87.01</time>
   <time name="diis">  227.92  229.91</time>
   <time name="orth">    3.08    3.09</time>
   <time name="total">  352.51  355.51</time>
   <energy>
    <i name="e_fr_energy">    -36.90047496 </i>
    <i name="e_wo_entrp">    -36.90047061 </i>
    <i name="e_0_energy">    -36.90047279 </i>
   </energy>
  </scstep>
  <scstep>
   <time name="diag">   86.44   87.07</time>
   <time name="diis">  213.38  214.36</time>
   <time name="orth">    3.09    3.09</time>
   <time name="total">  338.63  340.29</time>
   <energy>
    <i name="e_fr_energy">    -36.90047496 </i>
    <i name="e_wo_entrp">    -36.90047061 </i>
    <i name="e_0_energy">    -36.90047279 </i>
   </energy>
  </scstep>
  <scstep>
   <time name="diag">   87.01   87.04</time>
   <time name="diis">  201.98  202.17</time>
   <time name="orth">    3.08    3.08</time>
   <time name="total">  294.64  294.98</time>
   <energy>
    <i name="alphaZ">      6.18334092 </i>
    <i name="ewald">   2502.96260208 </i>
    <i name="hartreedc">  -2997.11622056 </i>
    <i name="XCdc">     57.29141116 </i>
    <i name="pawpsdc">    272.03250696 </i>
    <i name="pawaedc">   -277.15846609 </i>
    <i name="eentropy">     -0.00000436 </i>
    <i name="bandstr">   -189.71917198 </i>
    <i name="atom">    588.62352690 </i>
    <i name="e_fr_energy">    -36.90047496 </i>
    <i name="e_wo_entrp">    -36.90047061 </i>
    <i name="e_0_energy">    -36.90047279 </i>
   </energy>
  </scstep>
  <structure>
   <crystal>
    <varray name="basis" >
     <v>       4.26193833       0.00000000       0.00000000 </v>
     <v>       0.00000000       2.50468072       0.00000000 </v>
     <v>       0.00000000       0.00000000      19.75100281 </v>
    </varray>
    <i name="volume">    210.83790140 </i>
    <varray name="rec_basis" >
     <v>       0.23463502       0.00000000       0.00000000 </v>
     <v>       0.00000000       0.39925248       0.00000000 </v>
     <v>       0.00000000       0.00000000       0.05063034 </v>
    </varray>
   </crystal>
   <varray name="positions" >
    <v>       0.00039648       0.00000000       0.00000000 </v>
    <v>       0.16627019       0.50000000      -0.00000000 </v>
    <v>       0.50039648       0.50000000       0.00000000 </v>
    <v>       0.66627019      -0.00000000      -0.00000000 </v>
   </varray>
  </structure>
  <varray name="forces" >
   <v>       0.00000013      -0.00000000       0.00000000 </v>
   <v>      -0.00000013       0.00000000       0.00000000 </v>
   <v>       0.00000013       0.00000000       0.00000000 </v>
   <v>      -0.00000013      -0.00000000       0.00000000 </v>
  </varray>
  <varray name="stress" >
   <v>       0.00249259       0.00000000       0.00000000 </v>
   <v>       0.00000000     -25.15390010       0.00000000 </v>
   <v>       0.00000000       0.00000000      -0.01027486 </v>
  </varray>
  <energy>
   <i name="e_fr_energy">    -36.90047496 </i>
   <i name="e_wo_entrp">    -36.90047279 </i>
   <i name="e_0_energy">     -0.00000436 </i>
  </energy>
  <time name="totalsc"> 3641.01 3660.92</time>
  <eigenvalues>
   <array>
    <dimension dim="1">band</dimension>
    <dimension dim="2">kpoint</dimension>
    <dimension dim="3">spin</dimension>
    <field>eigene</field>
    <field>occ</field>
    <set>
     <set comment="spin 1">
      <set comment="kpoint 1">
       <r>  -22.1491    1.0000 </r>
       <r>  -16.8277    1.0000 </r>
       <r>  -15.9058    1.0000 </r>
       <r>  -10.2782    1.0000 </r>
       <r>   -9.3573    1.0000 </r>
       <r>   -5.9177    1.0000 </r>
       <r>   -5.7543    1.0000 </r>
       <r>   -4.9850    1.0000 </r>
       <r>   -1.1129    0.0000 </r>
       <r>    0.5363    0.0000 </r>
       <r>    1.3355    0.0000 </r>
       <r>    1.7242    0.0000 </r>
      </set>
      <set comment="kpoint 2">
       <r>  -22.1387    1.0000 </r>
       <r>  -17.0107    1.0000 </r>
       <r>  -15.7077    1.0000 </r>
       <r>  -10.2659    1.0000 </r>
       <r>   -9.3470    1.0000 </r>
       <r>   -5.9409    1.0000 </r>
       <r>   -5.7955    1.0000 </r>
       <r>   -5.0536    1.0000 </r>
       <r>   -1.0289    0.0000 </r>
       <r>    0.5503    0.0000 </r>
       <r>    1.3496    0.0000 </r>
       <r>    1.7386    0.0000 </r>
      </set>
      <set comment="kpoint 3">
       <r>  -22.1078    1.0000 </r>
       <r>  -17.3658    1.0000 </r>
       <r>  -15.3074    1.0000 </r>
       <r>  -10.2290    1.0000 </r>
       <r>   -9.3161    1.0000 </r>
       <r>   -6.0094    1.0000 </r>
       <r>   -5.9175    1.0000 </r>
       <r>   -5.2434    1.0000 </r>
       <r>   -0.7935    0.0000 </r>
       <r>    0.5923    0.0000 </r>
       <r>    1.3921    0.0000 </r>
       <r>    1.7816    0.0000 </r>
      </set>
      <set comment="kpoint 4">
       <r>  -22.0562    1.0000 </r>
       <r>  -17.7525    1.0000 </r>
       <r>  -14.8455    1.0000 </r>
       <r>  -10.1677    1.0000 </r>
       <r>   -9.2647    1.0000 </r>
       <r>   -6.1194    1.0000 </r>
       <r>   -6.1159    1.0000 </r>
       <r>   -5.5187    1.0000 </r>
       <r>   -0.4427    0.0000 </r>
       <r>    0.6623    0.0000 </r>
       <r>    1.4629    0.0000 </r>
       <r>    1.8532    0.0000 </r>
      </set>
      <set comment="kpoint 5">
       <r>  -21.9840    1.0000 </r>
       <r>  -18.1382    1.0000 </r>
       <r>  -14.3552    1.0000 </r>
       <r>  -10.0820    1.0000 </r>
       <r>   -9.1931    1.0000 </r>
       <r>   -6.3839    1.0000 </r>
       <r>   -6.2654    1.0000 </r>
       <r>   -5.8451    1.0000 </r>
       <r>   -0.0117    0.0000 </r>
       <r>    0.7603    0.0000 </r>
       <r>    1.5619    0.0000 </r>
       <r>    1.9535    0.0000 </r>
      </set>
      <set comment="kpoint 6">
       <r>  -21.8912    1.0000 </r>
       <r>  -18.5135    1.0000 </r>
       <r>  -13.8467    1.0000 </r>
       <r>   -9.9720    1.0000 </r>
       <r>   -9.1017    1.0000 </r>
       <r>   -6.7134    1.0000 </r>
       <r>   -6.4407    1.0000 </r>
       <r>   -6.1977    1.0000 </r>
       <r>    0.4731    0.0000 </r>
       <r>    0.8863    0.0000 </r>
       <r>    1.6892    0.0000 </r>
       <r>    2.0825    0.0000 </r>
      </set>
      <set comment="kpoint 7">
       <r>  -21.7780    1.0000 </r>
       <r>  -18.8746    1.0000 </r>
       <r>  -13.3244    1.0000 </r>
       <r>   -9.8379    1.0000 </r>
       <r>   -8.9910    1.0000 </r>
       <r>   -7.0958    1.0000 </r>
       <r>   -6.6386    1.0000 </r>
       <r>   -6.5601    1.0000 </r>
       <r>    0.9938    0.0000 </r>
       <r>    1.0402    0.0000 </r>
       <r>    1.8447    0.0000 </r>
       <r>    2.2402    0.0000 </r>
      </set>
      <set comment="kpoint 8">
       <r>  -21.6444    1.0000 </r>
       <r>  -19.2196    1.0000 </r>
       <r>  -12.7916    1.0000 </r>
       <r>   -9.6800    1.0000 </r>
       <r>   -8.8617    1.0000 </r>
       <r>   -7.5222    1.0000 </r>
       <r>   -6.9219    1.0000 </r>
       <r>   -6.8522    1.0000 </r>
       <r>    1.2220    0.0000 </r>
       <r>    1.5380    0.0000 </r>
       <r>    2.0283    0.0000 </r>
       <r>    2.4265    0.0000 </r>
      </set>
      <set comment="kpoint 9">
       <r>  -21.4904    1.0000 </r>
       <r>  -19.5474    1.0000 </r>
       <r>  -12.2506    1.0000 </r>
       <r>   -9.4986    1.0000 </r>
       <r>   -8.7144    1.0000 </r>
       <r>   -7.9846    1.0000 </r>
       <r>   -7.2764    1.0000 </r>
       <r>   -7.0757    1.0000 </r>
       <r>    1.4318    0.0000 </r>
       <r>    2.0960    0.0000 </r>
       <r>    2.2399    0.0000 </r>
       <r>    2.6414    0.0000 </r>
      </set>
      <set comment="kpoint 10">
       <r>  -21.3163    1.0000 </r>
       <r>  -19.8572    1.0000 </r>
       <r>  -11.7040    1.0000 </r>
       <r>   -9.2940    1.0000 </r>
       <r>   -8.5503    1.0000 </r>
       <r>   -8.4755    1.0000 </r>
       <r>   -7.6188    1.0000 </r>
       <r>   -7.3035    1.0000 </r>
       <r>    1.6693    0.0000 </r>
       <r>    2.4794    0.0000 </r>
       <r>    2.6595    0.0000 </r>
       <r>    2.8850    0.0000 </r>
      </set>
      <set comment="kpoint 11">
       <r>  -21.1221    1.0000 </r>
       <r>  -20.1486    1.0000 </r>
       <r>  -11.1542    1.0000 </r>
       <r>   -9.0668    1.0000 </r>
       <r>   -8.9883    1.0000 </r>
       <r>   -8.3706    1.0000 </r>
       <r>   -7.9462    1.0000 </r>
       <r>   -7.5311    1.0000 </r>
       <r>    1.9347    0.0000 </r>
       <r>    2.7463    0.0000 </r>
       <r>    3.1573    0.0000 </r>
       <r>    3.2649    0.0000 </r>
      </set>
      <set comment="kpoint 12">
       <r>  -20.9081    1.0000 </r>
       <r>  -20.4210    1.0000 </r>
       <r>  -10.6043    1.0000 </r>
       <r>   -9.5173    1.0000 </r>
       <r>   -8.8176    1.0000 </r>
       <r>   -8.2561    1.0000 </r>
       <r>   -8.1768    1.0000 </r>
       <r>   -7.7546    1.0000 </r>
       <r>    2.2276    0.0000 </r>
       <r>    2.8955    0.0000 </r>
       <r>    3.0398    0.0000 </r>
       <r>    3.4620    0.0000 </r>
      </set>
      <set comment="kpoint 13">
       <r>  -20.6743    1.0000 </r>
       <r>  -20.6743    1.0000 </r>
       <r>  -10.0574    1.0000 </r>
       <r>  -10.0574    1.0000 </r>
       <r>   -8.5470    1.0000 </r>
       <r>   -8.5470    1.0000 </r>
       <r>   -7.9707    1.0000 </r>
       <r>   -7.9707    1.0000 </r>
       <r>    2.5480    0.0000 </r>
       <r>    2.5480    0.0000 </r>
       <r>    3.3557    0.0000 </r>
       <r>    3.3558    0.0000 </r>
      </set>
      <set comment="kpoint 14">
       <r>  -22.1358    1.0000 </r>
       <r>  -16.8163    1.0000 </r>
       <r>  -15.8950    1.0000 </r>
       <r>  -10.2624    1.0000 </r>
       <r>   -9.4168    1.0000 </r>
       <r>   -5.9724    1.0000 </r>
       <r>   -5.7857    1.0000 </r>
       <r>   -4.9689    1.0000 </r>
       <r>   -1.1182    0.0000 </r>
       <r>    0.5543    0.0000 </r>
       <r>    1.3537    0.0000 </r>
       <r>    1.7427    0.0000 </r>
      </set>
      <set comment="kpoint 15">
       <r>  -22.1255    1.0000 </r>
       <r>  -16.9992    1.0000 </r>
       <r>  -15.6970    1.0000 </r>
       <r>  -10.2501    1.0000 </r>
       <r>   -9.4065    1.0000 </r>
       <r>   -5.9996    1.0000 </r>
       <r>   -5.8223    1.0000 </r>
       <r>   -5.0377    1.0000 </r>
       <r>   -1.0342    0.0000 </r>
       <r>    0.5683    0.0000 </r>
       <r>    1.3678    0.0000 </r>
       <r>    1.7570    0.0000 </r>
      </set>
      <set comment="kpoint 16">
       <r>  -22.0945    1.0000 </r>
       <r>  -17.3540    1.0000 </r>
       <r>  -15.2971    1.0000 </r>
       <r>  -10.2133    1.0000 </r>
       <r>   -9.3754    1.0000 </r>
       <r>   -6.0827    1.0000 </r>
       <r>   -5.9277    1.0000 </r>
       <r>   -5.2278    1.0000 </r>
       <r>   -0.7988    0.0000 </r>
       <r>    0.6103    0.0000 </r>
       <r>    1.4103    0.0000 </r>
       <r>    1.8000    0.0000 </r>
      </set>
      <set comment="kpoint 17">
       <r>  -22.0429    1.0000 </r>
       <r>  -17.7405    1.0000 </r>
       <r>  -14.8358    1.0000 </r>
       <r>  -10.1520    1.0000 </r>
       <r>   -9.3239    1.0000 </r>
       <r>   -6.2313    1.0000 </r>
       <r>   -6.0846    1.0000 </r>
       <r>   -5.5035    1.0000 </r>
       <r>   -0.4482    0.0000 </r>
       <r>    0.6803    0.0000 </r>
       <r>    1.4811    0.0000 </r>
       <r>    1.8717    0.0000 </r>
      </set>
      <set comment="kpoint 18">
       <r>  -21.9707    1.0000 </r>
       <r>  -18.1261    1.0000 </r>
       <r>  -14.3461    1.0000 </r>
       <r>  -10.0663    1.0000 </r>
       <r>   -9.2522    1.0000 </r>
       <r>   -6.4618    1.0000 </r>
       <r>   -6.2646    1.0000 </r>
       <r>   -5.8302    1.0000 </r>
       <r>   -0.0179    0.0000 </r>
       <r>    0.7783    0.0000 </r>
       <r>    1.5801    0.0000 </r>
       <r>    1.9720    0.0000 </r>
      </set>
      <set comment="kpoint 19">
       <r>  -21.8780    1.0000 </r>
       <r>  -18.5012    1.0000 </r>
       <r>  -13.8383    1.0000 </r>
       <r>   -9.9563    1.0000 </r>
       <r>   -9.1605    1.0000 </r>
       <r>   -6.7696    1.0000 </r>
       <r>   -6.4580    1.0000 </r>
       <r>   -6.1829    1.0000 </r>
       <r>    0.4659    0.0000 </r>
       <r>    0.9043    0.0000 </r>
       <r>    1.7074    0.0000 </r>
       <r>    2.1010    0.0000 </r>
      </set>
      <set comment="kpoint 20">
       <r>  -21.7648    1.0000 </r>
       <r>  -18.8621    1.0000 </r>
       <r>  -13.3169    1.0000 </r>
       <r>   -9.8223    1.0000 </r>
       <r>   -9.0495    1.0000 </r>
       <r>   -7.1378    1.0000 </r>
       <r>   -6.6664    1.0000 </r>
       <r>   -6.5454    1.0000 </r>
       <r>    0.9853    0.0000 </r>
       <r>    1.0582    0.0000 </r>
       <r>    1.8628    0.0000 </r>
       <r>    2.2586    0.0000 </r>
      </set>
      <set comment="kpoint 21">
       <r>  -21.6312    1.0000 </r>
       <r>  -19.2070    1.0000 </r>
       <r>  -12.7852    1.0000 </r>
       <r>   -9.6644    1.0000 </r>
       <r>   -8.9196    1.0000 </r>
       <r>   -7.5538    1.0000 </r>
       <r>   -6.9072    1.0000 </r>
       <r>   -6.8873    1.0000 </r>
       <r>    1.2401    0.0000 </r>
       <r>    1.5278    0.0000 </r>
       <r>    2.0464    0.0000 </r>
       <r>    2.4449    0.0000 </r>
      </set>
      <set comment="kpoint 22">
       <r>  -21.4773    1.0000 </r>
       <r>  -19.5347    1.0000 </r>
       <r>  -12.2455    1.0000 </r>
       <r>   -9.4831    1.0000 </r>
       <r>   -8.7718    1.0000 </r>
       <r>   -8.0080    1.0000 </r>
       <r>   -7.2616    1.0000 </r>
       <r>   -7.1161    1.0000 </r>
       <r>    1.4498    0.0000 </r>
       <r>    2.0839    0.0000 </r>
       <r>    2.2581    0.0000 </r>
       <r>    2.6599    0.0000 </r>
      </set>
      <set comment="kpoint 23">
       <r>  -21.3032    1.0000 </r>
       <r>  -19.8444    1.0000 </r>
       <r>  -11.7004    1.0000 </r>
       <r>   -9.2786    1.0000 </r>
       <r>   -8.6069    1.0000 </r>
       <r>   -8.4923    1.0000 </r>
       <r>   -7.6040    1.0000 </r>
       <r>   -7.3481    1.0000 </r>
       <r>    1.6874    0.0000 </r>
       <r>    2.4975    0.0000 </r>
       <r>    2.6455    0.0000 </r>
       <r>    2.9035    0.0000 </r>
      </set>
      <set comment="kpoint 24">
       <r>  -21.1090    1.0000 </r>
       <r>  -20.1357    1.0000 </r>
       <r>  -11.1526    1.0000 </r>
       <r>   -9.0515    1.0000 </r>
       <r>   -8.9998    1.0000 </r>
       <r>   -8.4262    1.0000 </r>
       <r>   -7.9312    1.0000 </r>
       <r>   -7.5790    1.0000 </r>
       <r>    1.9527    0.0000 </r>
       <r>    2.7645    0.0000 </r>
       <r>    3.1757    0.0000 </r>
       <r>    3.2016    0.0000 </r>
      </set>
      <set comment="kpoint 25">
       <r>  -20.8950    1.0000 </r>
       <r>  -20.4081    1.0000 </r>
       <r>  -10.6050    1.0000 </r>
       <r>   -9.5244    1.0000 </r>
       <r>   -8.8023    1.0000 </r>
       <r>   -8.2411    1.0000 </r>
       <r>   -8.2310    1.0000 </r>
       <r>   -7.8051    1.0000 </r>
       <r>    2.2457    0.0000 </r>
       <r>    2.9137    0.0000 </r>
       <r>    3.0580    0.0000 </r>
       <r>    3.4765    0.0000 </r>
      </set>
      <set comment="kpoint 26">
       <r>  -20.6613    1.0000 </r>
       <r>  -20.6613    1.0000 </r>
       <r>  -10.0610    1.0000 </r>
       <r>  -10.0610    1.0000 </r>
       <r>   -8.5318    1.0000 </r>
       <r>   -8.5318    1.0000 </r>
       <r>   -8.0233    1.0000 </r>
       <r>   -8.0233    1.0000 </r>
       <r>    2.5661    0.0000 </r>
       <r>    2.5661    0.0000 </r>
       <r>    3.3740    0.0000 </r>
       <r>    3.3743    0.0000 </r>
      </set>
      <set comment="kpoint 27">
       <r>  -22.0960    1.0000 </r>
       <r>  -16.7821    1.0000 </r>
       <r>  -15.8625    1.0000 </r>
       <r>  -10.2151    1.0000 </r>
       <r>   -9.5905    1.0000 </r>
       <r>   -6.1324    1.0000 </r>
       <r>   -5.8792    1.0000 </r>
       <r>   -4.9206    1.0000 </r>
       <r>   -1.1349    0.0000 </r>
       <r>    0.6082    0.0000 </r>
       <r>    1.4083    0.0000 </r>
       <r>    1.7980    0.0000 </r>
      </set>
      <set comment="kpoint 28">
       <r>  -22.0857    1.0000 </r>
       <r>  -16.9645    1.0000 </r>
       <r>  -15.6652    1.0000 </r>
       <r>  -10.2028    1.0000 </r>
       <r>   -9.5800    1.0000 </r>
       <r>   -6.1665    1.0000 </r>
       <r>   -5.9069    1.0000 </r>
       <r>   -4.9899    1.0000 </r>
       <r>   -1.0508    0.0000 </r>
       <r>    0.6222    0.0000 </r>
       <r>    1.4225    0.0000 </r>
       <r>    1.8123    0.0000 </r>
      </set>
      <set comment="kpoint 29">
       <r>  -22.0547    1.0000 </r>
       <r>  -17.3187    1.0000 </r>
       <r>  -15.2665    1.0000 </r>
       <r>  -10.1660    1.0000 </r>
       <r>   -9.5488    1.0000 </r>
       <r>   -6.2669    1.0000 </r>
       <r>   -5.9891    1.0000 </r>
       <r>   -5.1812    1.0000 </r>
       <r>   -0.8154    0.0000 </r>
       <r>    0.6642    0.0000 </r>
       <r>    1.4649    0.0000 </r>
       <r>    1.8553    0.0000 </r>
      </set>
      <set comment="kpoint 30">
       <r>  -22.0032    1.0000 </r>
       <r>  -17.7045    1.0000 </r>
       <r>  -14.8067    1.0000 </r>
       <r>  -10.1048    1.0000 </r>
       <r>   -9.4968    1.0000 </r>
       <r>   -6.4304    1.0000 </r>
       <r>   -6.1223    1.0000 </r>
       <r>   -5.4580    1.0000 </r>
       <r>   -0.4656    0.0000 </r>
       <r>    0.7342    0.0000 </r>
       <r>    1.5357    0.0000 </r>
       <r>    1.9270    0.0000 </r>
      </set>
      <set comment="kpoint 31">
       <r>  -21.9310    1.0000 </r>
       <r>  -18.0895    1.0000 </r>
       <r>  -14.3189    1.0000 </r>
       <r>  -10.0192    1.0000 </r>
       <r>   -9.4244    1.0000 </r>
       <r>   -6.6540    1.0000 </r>
       <r>   -6.2989    1.0000 </r>
       <r>   -5.7855    1.0000 </r>
       <r>   -0.0372    0.0000 </r>
       <r>    0.8322    0.0000 </r>
       <r>    1.6347    0.0000 </r>
       <r>    2.0273    0.0000 </r>
      </set>
      <set comment="kpoint 32">
       <r>  -21.8383    1.0000 </r>
       <r>  -18.4642    1.0000 </r>
       <r>  -13.8134    1.0000 </r>
       <r>   -9.9093    1.0000 </r>
       <r>   -9.3319    1.0000 </r>
       <r>   -6.9356    1.0000 </r>
       <r>   -6.5078    1.0000 </r>
       <r>   -6.1387    1.0000 </r>
       <r>    0.4435    0.0000 </r>
       <r>    0.9582    0.0000 </r>
       <r>    1.7619    0.0000 </r>
       <r>    2.1563    0.0000 </r>
      </set>
      <set comment="kpoint 33">
       <r>  -21.7252    1.0000 </r>
       <r>  -18.8247    1.0000 </r>
       <r>  -13.2948    1.0000 </r>
       <r>   -9.7754    1.0000 </r>
       <r>   -9.2196    1.0000 </r>
       <r>   -7.2720    1.0000 </r>
       <r>   -6.7375    1.0000 </r>
       <r>   -6.5013    1.0000 </r>
       <r>    0.9588    0.0000 </r>
       <r>    1.1122    0.0000 </r>
       <r>    1.9173    0.0000 </r>
       <r>    2.3139    0.0000 </r>
      </set>
      <set comment="kpoint 34">
       <r>  -21.5916    1.0000 </r>
       <r>  -19.1692    1.0000 </r>
       <r>  -12.7664    1.0000 </r>
       <r>   -9.6178    1.0000 </r>
       <r>   -9.0882    1.0000 </r>
       <r>   -7.6579    1.0000 </r>
       <r>   -6.9789    1.0000 </r>
       <r>   -6.8631    1.0000 </r>
       <r>    1.2941    0.0000 </r>
       <r>    1.4963    0.0000 </r>
       <r>    2.1009    0.0000 </r>
       <r>    2.5003    0.0000 </r>
      </set>
      <set comment="kpoint 35">
       <r>  -21.4378    1.0000 </r>
       <r>  -19.4966    1.0000 </r>
       <r>  -12.2309    1.0000 </r>
       <r>   -9.4366    1.0000 </r>
       <r>   -8.9383    1.0000 </r>
       <r>   -8.0862    1.0000 </r>
       <r>   -7.2252    1.0000 </r>
       <r>   -7.2173    1.0000 </r>
       <r>    1.5039    0.0000 </r>
       <r>    2.0467    0.0000 </r>
       <r>    2.3125    0.0000 </r>
       <r>    2.7152    0.0000 </r>
      </set>
      <set comment="kpoint 36">
       <r>  -21.2638    1.0000 </r>
       <r>  -19.8060    1.0000 </r>
       <r>  -11.6908    1.0000 </r>
       <r>   -9.2324    1.0000 </r>
       <r>   -8.7708    1.0000 </r>
       <r>   -8.5489    1.0000 </r>
       <r>   -7.5595    1.0000 </r>
       <r>   -7.4715    1.0000 </r>
       <r>    1.7415    0.0000 </r>
       <r>    2.5520    0.0000 </r>
       <r>    2.6022    0.0000 </r>
       <r>    2.9588    0.0000 </r>
      </set>
      <set comment="kpoint 37">
       <r>  -21.0698    1.0000 </r>
       <r>  -20.0971    1.0000 </r>
       <r>  -11.1491    1.0000 </r>
       <r>   -9.0389    1.0000 </r>
       <r>   -9.0055    1.0000 </r>
       <r>   -8.5867    1.0000 </r>
       <r>   -7.8864    1.0000 </r>
       <r>   -7.7137    1.0000 </r>
       <r>    2.0069    0.0000 </r>
       <r>    2.8189    0.0000 </r>
       <r>    3.1539    0.0000 </r>
       <r>    3.2311    0.0000 </r>
      </set>
      <set comment="kpoint 38">
       <r>  -20.8559    1.0000 </r>
       <r>  -20.3693    1.0000 </r>
       <r>  -10.6091    1.0000 </r>
       <r>   -9.5493    1.0000 </r>
       <r>   -8.7566    1.0000 </r>
       <r>   -8.3873    1.0000 </r>
       <r>   -8.1960    1.0000 </r>
       <r>   -7.9488    1.0000 </r>
       <r>    2.2999    0.0000 </r>
       <r>    2.9683    0.0000 </r>
       <r>    3.1126    0.0000 </r>
       <r>    3.5319    0.0000 </r>
      </set>
      <set comment="kpoint 39">
       <r>  -20.6223    1.0000 </r>
       <r>  -20.6223    1.0000 </r>
       <r>  -10.0743    1.0000 </r>
       <r>  -10.0743    1.0000 </r>
       <r>   -8.4864    1.0000 </r>
       <r>   -8.4864    1.0000 </r>
       <r>   -8.1740    1.0000 </r>
       <r>   -8.1740    1.0000 </r>
       <r>    2.6205    0.0000 </r>
       <r>    2.6205    0.0000 </r>
       <r>    3.4286    0.0000 </r>
       <r>    3.4286    0.0000 </r>
      </set>
      <set comment="kpoint 40">
       <r>  -22.0298    1.0000 </r>
       <r>  -16.7250    1.0000 </r>
       <r>  -15.8092    1.0000 </r>
       <r>  -10.1363    1.0000 </r>
       <r>   -9.8650    1.0000 </r>
       <r>   -6.3861    1.0000 </r>
       <r>   -6.0320    1.0000 </r>
       <r>   -4.8403    1.0000 </r>
       <r>   -1.1655    0.0000 </r>
       <r>    0.6980    0.0000 </r>
       <r>    1.4993    0.0000 </r>
       <r>    1.8902    0.0000 </r>
      </set>
      <set comment="kpoint 41">
       <r>  -22.0194    1.0000 </r>
       <r>  -16.9069    1.0000 </r>
       <r>  -15.6127    1.0000 </r>
       <r>  -10.1241    1.0000 </r>
       <r>   -9.8545    1.0000 </r>
       <r>   -6.4259    1.0000 </r>
       <r>   -6.0506    1.0000 </r>
       <r>   -4.9105    1.0000 </r>
       <r>   -1.0811    0.0000 </r>
       <r>    0.7120    0.0000 </r>
       <r>    1.5135    0.0000 </r>
       <r>    1.9045    0.0000 </r>
      </set>
      <set comment="kpoint 42">
       <r>  -21.9885    1.0000 </r>
       <r>  -17.2599    1.0000 </r>
       <r>  -15.2161    1.0000 </r>
       <r>  -10.0874    1.0000 </r>
       <r>   -9.8227    1.0000 </r>
       <r>   -6.5388    1.0000 </r>
       <r>   -6.1111    1.0000 </r>
       <r>   -5.1038    1.0000 </r>
       <r>   -0.8457    0.0000 </r>
       <r>    0.7540    0.0000 </r>
       <r>    1.5559    0.0000 </r>
       <r>    1.9475    0.0000 </r>
[...]
       <r>   -9.0850    1.0000 </r>
       <r>   -5.6378    1.0000 </r>
       <r>   -5.6378    1.0000 </r>
       <r>   -0.5149    0.0000 </r>
       <r>   -0.5149    0.0000 </r>
       <r>    4.8232    0.0000 </r>
       <r>    4.8232    0.0000 </r>
      </set>
      <set comment="kpoint 209">
       <r>  -18.8401    1.0000 </r>
       <r>  -17.1127    1.0000 </r>
       <r>  -13.9347    1.0000 </r>
       <r>  -12.3548    1.0000 </r>
       <r>  -12.3512    1.0000 </r>
       <r>  -10.8644    1.0000 </r>
       <r>   -6.4686    1.0000 </r>
       <r>   -4.6332    1.0000 </r>
       <r>   -0.9924    0.0000 </r>
       <r>    1.1058    0.0000 </r>
       <r>    5.1160    0.0000 </r>
       <r>    5.9048    0.0000 </r>
      </set>
      <set comment="kpoint 210">
       <r>  -18.8303    1.0000 </r>
       <r>  -17.1052    1.0000 </r>
       <r>  -14.0248    1.0000 </r>
       <r>  -12.4355    1.0000 </r>
       <r>  -12.2564    1.0000 </r>
       <r>  -10.7819    1.0000 </r>
       <r>   -6.4597    1.0000 </r>
       <r>   -4.6356    1.0000 </r>
       <r>   -1.0030    0.0000 </r>
       <r>    1.0800    0.0000 </r>
       <r>    5.1296    0.0000 </r>
       <r>    5.9209    0.0000 </r>
      </set>
      <set comment="kpoint 211">
       <r>  -18.8011    1.0000 </r>
       <r>  -17.0828    1.0000 </r>
       <r>  -14.2462    1.0000 </r>
       <r>  -12.6465    1.0000 </r>
       <r>  -12.0105    1.0000 </r>
       <r>  -10.5771    1.0000 </r>
       <r>   -6.4334    1.0000 </r>
       <r>   -4.6432    1.0000 </r>
       <r>   -1.0330    0.0000 </r>
       <r>    1.0044    0.0000 </r>
       <r>    5.1706    0.0000 </r>
       <r>    5.9690    0.0000 </r>
      </set>
      <set comment="kpoint 212">
       <r>  -18.7526    1.0000 </r>
       <r>  -17.0470    1.0000 </r>
       <r>  -14.5260    1.0000 </r>
       <r>  -12.9203    1.0000 </r>
       <r>  -11.6899    1.0000 </r>
       <r>  -10.3159    1.0000 </r>
       <r>   -6.3898    1.0000 </r>
       <r>   -4.6577    1.0000 </r>
       <r>   -1.0770    0.0000 </r>
       <r>    0.8845    0.0000 </r>
       <r>    5.2386    0.0000 </r>
       <r>    6.0480    0.0000 </r>
      </set>
      <set comment="kpoint 213">
       <r>  -18.6848    1.0000 </r>
       <r>  -17.0003    1.0000 </r>
       <r>  -14.8215    1.0000 </r>
       <r>  -13.2197    1.0000 </r>
       <r>  -11.3370    1.0000 </r>
       <r>  -10.0388    1.0000 </r>
       <r>   -6.3294    1.0000 </r>
       <r>   -4.6812    1.0000 </r>
       <r>   -1.1273    0.0000 </r>
       <r>    0.7281    0.0000 </r>
       <r>    5.3326    0.0000 </r>
       <r>    6.1634    0.0000 </r>
      </set>
      <set comment="kpoint 214">
       <r>  -18.5980    1.0000 </r>
       <r>  -16.9480    1.0000 </r>
       <r>  -15.1091    1.0000 </r>
       <r>  -13.5265    1.0000 </r>
       <r>  -10.9736    1.0000 </r>
       <r>   -9.7688    1.0000 </r>
       <r>   -6.2531    1.0000 </r>
       <r>   -4.7167    1.0000 </r>
       <r>   -1.1744    0.0000 </r>
       <r>    0.5442    0.0000 </r>
       <r>    5.4489    0.0000 </r>
       <r>    6.1815    0.0000 </r>
      </set>
      <set comment="kpoint 215">
       <r>  -18.4926    1.0000 </r>
       <r>  -16.8998    1.0000 </r>
       <r>  -15.3700    1.0000 </r>
       <r>  -13.8313    1.0000 </r>
       <r>  -10.6134    1.0000 </r>
       <r>   -9.5210    1.0000 </r>
       <r>   -6.1619    1.0000 </r>
       <r>   -4.7670    1.0000 </r>
       <r>   -1.2089    0.0000 </r>
       <r>    0.3417    0.0000 </r>
       <r>    5.5433    0.0000 </r>
       <r>    5.7921    0.0000 </r>
      </set>
      <set comment="kpoint 216">
       <r>  -18.3691    1.0000 </r>
       <r>  -16.8737    1.0000 </r>
       <r>  -15.5811    1.0000 </r>
       <r>  -14.1283    1.0000 </r>
       <r>  -10.2667    1.0000 </r>
       <r>   -9.3078    1.0000 </r>
       <r>   -6.0570    1.0000 </r>
       <r>   -4.8342    1.0000 </r>
       <r>   -1.2226    0.0000 </r>
       <r>    0.1292    0.0000 </r>
       <r>    5.3062    0.0000 </r>
       <r>    5.8261    0.0000 </r>
      </set>
      <set comment="kpoint 217">
       <r>  -18.2282    1.0000 </r>
       <r>  -16.8968    1.0000 </r>
       <r>  -15.7127    1.0000 </r>
       <r>  -14.4138    1.0000 </r>
       <r>   -9.9432    1.0000 </r>
       <r>   -9.1396    1.0000 </r>
       <r>   -5.9402    1.0000 </r>
       <r>   -4.9193    1.0000 </r>
       <r>   -1.2090    0.0000 </r>
       <r>   -0.0856    0.0000 </r>
       <r>    5.0124    0.0000 </r>
       <r>    5.8351    0.0000 </r>
      </set>
      <set comment="kpoint 218">
       <r>  -18.0708    1.0000 </r>
       <r>  -16.9889    1.0000 </r>
       <r>  -15.7430    1.0000 </r>
       <r>  -14.6845    1.0000 </r>
       <r>   -9.6520    1.0000 </r>
       <r>   -9.0255    1.0000 </r>
       <r>   -5.8136    1.0000 </r>
       <r>   -5.0214    1.0000 </r>
       <r>   -1.1643    0.0000 </r>
       <r>   -0.2958    0.0000 </r>
       <r>    4.7944    0.0000 </r>
       <r>    5.4361    0.0000 </r>
      </set>
      <set comment="kpoint 219">
       <r>  -17.8985    1.0000 </r>
       <r>  -17.1405    1.0000 </r>
       <r>  -15.6805    1.0000 </r>
       <r>  -14.9377    1.0000 </r>
       <r>   -9.4024    1.0000 </r>
       <r>   -8.9723    1.0000 </r>
       <r>   -5.6797    1.0000 </r>
       <r>   -5.1383    1.0000 </r>
       <r>   -1.0873    0.0000 </r>
       <r>   -0.4955    0.0000 </r>
       <r>    4.6666    0.0000 </r>
       <r>    5.1075    0.0000 </r>
      </set>
      <set comment="kpoint 220">
       <r>  -17.7136    1.0000 </r>
       <r>  -17.3248    1.0000 </r>
       <r>  -15.5514    1.0000 </r>
       <r>  -15.1700    1.0000 </r>
       <r>   -9.2033    1.0000 </r>
       <r>   -8.9842    1.0000 </r>
       <r>   -5.5415    1.0000 </r>
       <r>   -5.2667    1.0000 </r>
       <r>   -0.9790    0.0000 </r>
       <r>   -0.6791    0.0000 </r>
       <r>    4.6346    0.0000 </r>
       <r>    4.8593    0.0000 </r>
      </set>
      <set comment="kpoint 221">
       <r>  -17.5201    1.0000 </r>
       <r>  -17.5201    1.0000 </r>
       <r>  -15.3770    1.0000 </r>
       <r>  -15.3770    1.0000 </r>
       <r>   -9.0621    1.0000 </r>
       <r>   -9.0621    1.0000 </r>
       <r>   -5.4025    1.0000 </r>
       <r>   -5.4025    1.0000 </r>
       <r>   -0.8417    0.0000 </r>
       <r>   -0.8417    0.0000 </r>
       <r>    4.6997    0.0000 </r>
       <r>    4.6997    0.0000 </r>
      </set>
      <set comment="kpoint 222">
       <r>  -18.4315    1.0000 </r>
       <r>  -17.5641    1.0000 </r>
       <r>  -13.5680    1.0000 </r>
       <r>  -12.7756    1.0000 </r>
       <r>  -12.0161    1.0000 </r>
       <r>  -11.2662    1.0000 </r>
       <r>   -6.0226    1.0000 </r>
       <r>   -5.0999    1.0000 </r>
       <r>   -0.5003    0.0000 </r>
       <r>    0.5508    0.0000 </r>
       <r>    5.6969    0.0000 </r>
       <r>    6.4524    0.0000 </r>
      </set>
      <set comment="kpoint 223">
       <r>  -18.4220    1.0000 </r>
       <r>  -17.5554    1.0000 </r>
       <r>  -13.6585    1.0000 </r>
       <r>  -12.8626    1.0000 </r>
       <r>  -11.9201    1.0000 </r>
       <r>  -11.1785    1.0000 </r>
       <r>   -6.0150    1.0000 </r>
       <r>   -5.0974    1.0000 </r>
       <r>   -0.5172    0.0000 </r>
       <r>    0.5270    0.0000 </r>
       <r>    5.7105    0.0000 </r>
       <r>    6.4693    0.0000 </r>
      </set>
      <set comment="kpoint 224">
       <r>  -18.3933    1.0000 </r>
       <r>  -17.5295    1.0000 </r>
       <r>  -13.8816    1.0000 </r>
       <r>  -13.0791    1.0000 </r>
       <r>  -11.6810    1.0000 </r>
       <r>  -10.9605    1.0000 </r>
       <r>   -5.9926    1.0000 </r>
       <r>   -5.0899    1.0000 </r>
       <r>   -0.5660    0.0000 </r>
       <r>    0.4575    0.0000 </r>
       <r>    5.7513    0.0000 </r>
       <r>    6.5198    0.0000 </r>
      </set>
      <set comment="kpoint 225">
       <r>  -18.3458    1.0000 </r>
       <r>  -17.4868    1.0000 </r>
       <r>  -14.1657    1.0000 </r>
       <r>  -13.3583    1.0000 </r>
       <r>  -11.3712    1.0000 </r>
       <r>  -10.6808    1.0000 </r>
       <r>   -5.9557    1.0000 </r>
       <r>   -5.0788    1.0000 </r>
       <r>   -0.6414    0.0000 </r>
       <r>    0.3475    0.0000 </r>
       <r>    5.8188    0.0000 </r>
       <r>    6.6023    0.0000 </r>
      </set>
      <set comment="kpoint 226">
       <r>  -18.2796    1.0000 </r>
       <r>  -17.4285    1.0000 </r>
       <r>  -14.4704    1.0000 </r>
       <r>  -13.6618    1.0000 </r>
       <r>  -11.0330    1.0000 </r>
       <r>  -10.3807    1.0000 </r>
       <r>   -5.9052    1.0000 </r>
       <r>   -5.0659    1.0000 </r>
       <r>   -0.7355    0.0000 </r>
       <r>    0.2050    0.0000 </r>
       <r>    5.9112    0.0000 </r>
       <r>    6.7150    0.0000 </r>
      </set>
      <set comment="kpoint 227">
       <r>  -18.1951    1.0000 </r>
       <r>  -17.3562    1.0000 </r>
       <r>  -14.7755    1.0000 </r>
       <r>  -13.9713    1.0000 </r>
       <r>  -10.6885    1.0000 </r>
       <r>  -10.0829    1.0000 </r>
       <r>   -5.8422    1.0000 </r>
       <r>   -5.0537    1.0000 </r>
       <r>   -0.8386    0.0000 </r>
       <r>    0.0388    0.0000 </r>
       <r>    6.0169    0.0000 </r>
       <r>    6.4533    0.0000 </r>
      </set>
      <set comment="kpoint 228">
       <r>  -18.0929    1.0000 </r>
       <r>  -17.2731    1.0000 </r>
       <r>  -15.0690    1.0000 </r>
       <r>  -14.2770    1.0000 </r>
       <r>  -10.3514    1.0000 </r>
       <r>   -9.8021    1.0000 </r>
       <r>   -5.7682    1.0000 </r>
       <r>   -5.0453    1.0000 </r>
       <r>   -0.9405    0.0000 </r>
       <r>   -0.1415    0.0000 </r>
       <r>    5.9001    0.0000 </r>
       <r>    6.2417    0.0000 </r>
      </set>
      <set comment="kpoint 229">
       <r>  -17.9739    1.0000 </r>
       <r>  -17.1848    1.0000 </r>
       <r>  -15.3403    1.0000 </r>
       <r>  -14.5730    1.0000 </r>
       <r>  -10.0328    1.0000 </r>
       <r>   -9.5503    1.0000 </r>
       <r>   -5.6853    1.0000 </r>
       <r>   -5.0443    1.0000 </r>
       <r>   -1.0310    0.0000 </r>
       <r>   -0.3270    0.0000 </r>
       <r>    5.5056    0.0000 </r>
       <r>    5.9986    0.0000 </r>
      </set>
      <set comment="kpoint 230">
       <r>  -17.8395    1.0000 </r>
       <r>  -17.1018    1.0000 </r>
       <r>  -15.5760    1.0000 </r>
       <r>  -14.8550    1.0000 </r>
       <r>   -9.7426    1.0000 </r>
       <r>   -9.3380    1.0000 </r>
       <r>   -5.5960    1.0000 </r>
       <r>   -5.0541    1.0000 </r>
       <r>   -1.1009    0.0000 </r>
       <r>   -0.5091    0.0000 </r>
       <r>    5.1589    0.0000 </r>
       <r>    5.5718    0.0000 </r>
      </set>
      <set comment="kpoint 231">
       <r>  -17.6918    1.0000 </r>
       <r>  -17.0433    1.0000 </r>
       <r>  -15.7550    1.0000 </r>
       <r>  -15.1186    1.0000 </r>
       <r>   -9.4904    1.0000 </r>
       <r>   -9.1747    1.0000 </r>
       <r>   -5.5032    1.0000 </r>
       <r>   -5.0777    1.0000 </r>
       <r>   -1.1427    0.0000 </r>
       <r>   -0.6801    0.0000 </r>
       <r>    4.8886    0.0000 </r>
       <r>    5.2112    0.0000 </r>
      </set>
      <set comment="kpoint 232">
       <r>  -17.5345    1.0000 </r>
       <r>  -17.0371    1.0000 </r>
       <r>  -15.8486    1.0000 </r>
       <r>  -15.3591    1.0000 </r>
       <r>   -9.2853    1.0000 </r>
       <r>   -9.0684    1.0000 </r>
       <r>   -5.4105    1.0000 </r>
       <r>   -5.1168    1.0000 </r>
       <r>   -1.1511    0.0000 </r>
       <r>   -0.8328    0.0000 </r>
       <r>    4.7055    0.0000 </r>
       <r>    4.9274    0.0000 </r>
      </set>
      <set comment="kpoint 233">
       <r>  -17.3741    1.0000 </r>
       <r>  -17.1010    1.0000 </r>
       <r>  -15.8381    1.0000 </r>
       <r>  -15.5689    1.0000 </r>
       <r>   -9.1357    1.0000 </r>
       <r>   -9.0252    1.0000 </r>
       <r>   -5.3218    1.0000 </r>
       <r>   -5.1717    1.0000 </r>
       <r>   -1.1233    0.0000 </r>
       <r>   -0.9610    0.0000 </r>
       <r>    4.6164    0.0000 </r>
       <r>    4.7296    0.0000 </r>
      </set>
      <set comment="kpoint 234">
       <r>  -17.2225    1.0000 </r>
       <r>  -17.2225    1.0000 </r>
       <r>  -15.7357    1.0000 </r>
       <r>  -15.7357    1.0000 </r>
       <r>   -9.0477    1.0000 </r>
       <r>   -9.0477    1.0000 </r>
       <r>   -5.2410    1.0000 </r>
       <r>   -5.2410    1.0000 </r>
       <r>   -1.0591    0.0000 </r>
       <r>   -1.0591    0.0000 </r>
       <r>    4.6246    0.0000 </r>
       <r>    4.6246    0.0000 </r>
      </set>
      <set comment="kpoint 235">
       <r>  -18.0052    1.0000 </r>
       <r>  -18.0052    1.0000 </r>
       <r>  -13.1815    1.0000 </r>
       <r>  -13.1815    1.0000 </r>
       <r>  -11.6515    1.0000 </r>
       <r>  -11.6515    1.0000 </r>
       <r>   -5.5649    1.0000 </r>
       <r>   -5.5649    1.0000 </r>
       <r>    0.0148    0.0000 </r>
       <r>    0.0148    0.0000 </r>
       <r>    6.3077    0.0000 </r>
       <r>    6.3077    0.0000 </r>
      </set>
      <set comment="kpoint 236">
       <r>  -17.9959    1.0000 </r>
       <r>  -17.9959    1.0000 </r>
       <r>  -13.2707    1.0000 </r>
       <r>  -13.2707    1.0000 </r>
       <r>  -11.5592    1.0000 </r>
       <r>  -11.5592    1.0000 </r>
       <r>   -5.5593    1.0000 </r>
       <r>   -5.5593    1.0000 </r>
       <r>   -0.0062    0.0000 </r>
       <r>   -0.0062    0.0000 </r>
       <r>    6.3213    0.0000 </r>
       <r>    6.3213    0.0000 </r>
      </set>
      <set comment="kpoint 237">
       <r>  -17.9683    1.0000 </r>
       <r>  -17.9683    1.0000 </r>
       <r>  -13.4915    1.0000 </r>
       <r>  -13.4915    1.0000 </r>
       <r>  -11.3296    1.0000 </r>
       <r>  -11.3296    1.0000 </r>
       <r>   -5.5427    1.0000 </r>
       <r>   -5.5427    1.0000 </r>
       <r>   -0.0673    0.0000 </r>
       <r>   -0.0673    0.0000 </r>
       <r>    6.3618    0.0000 </r>
       <r>    6.3618    0.0000 </r>
      </set>
      <set comment="kpoint 238">
       <r>  -17.9225    1.0000 </r>
       <r>  -17.9225    1.0000 </r>
       <r>  -13.7745    1.0000 </r>
       <r>  -13.7745    1.0000 </r>
       <r>  -11.0337    1.0000 </r>
       <r>  -11.0337    1.0000 </r>
       <r>   -5.5159    1.0000 </r>
       <r>   -5.5159    1.0000 </r>
       <r>   -0.1633    0.0000 </r>
       <r>   -0.1633    0.0000 </r>
       <r>    6.4284    0.0000 </r>
       <r>    6.4284    0.0000 </r>
      </set>
      <set comment="kpoint 239">
       <r>  -17.8589    1.0000 </r>
       <r>  -17.8589    1.0000 </r>
       <r>  -14.0804    1.0000 </r>
       <r>  -14.0804    1.0000 </r>
       <r>  -10.7132    1.0000 </r>
       <r>  -10.7132    1.0000 </r>
       <r>   -5.4801    1.0000 </r>
       <r>   -5.4801    1.0000 </r>
       <r>   -0.2862    0.0000 </r>
       <r>   -0.2862    0.0000 </r>
       <r>    6.5175    0.0000 </r>
       <r>    6.5175    0.0000 </r>
      </set>
      <set comment="kpoint 240">
       <r>  -17.7784    1.0000 </r>
       <r>  -17.7784    1.0000 </r>
       <r>  -14.3901    1.0000 </r>
       <r>  -14.3901    1.0000 </r>
       <r>  -10.3905    1.0000 </r>
       <r>  -10.3905    1.0000 </r>
       <r>   -5.4371    1.0000 </r>
       <r>   -5.4371    1.0000 </r>
       <r>   -0.4269    0.0000 </r>
       <r>   -0.4269    0.0000 </r>
       <r>    6.5711    0.0000 </r>
       <r>    6.5971    0.0000 </r>
      </set>
      <set comment="kpoint 241">
       <r>  -17.6822    1.0000 </r>
       <r>  -17.6822    1.0000 </r>
       <r>  -14.6936    1.0000 </r>
       <r>  -14.6936    1.0000 </r>
       <r>  -10.0799    1.0000 </r>
       <r>  -10.0799    1.0000 </r>
       <r>   -5.3891    1.0000 </r>
       <r>   -5.3891    1.0000 </r>
       <r>   -0.5754    0.0000 </r>
       <r>   -0.5754    0.0000 </r>
       <r>    6.1820    0.0000 </r>
       <r>    6.1820    0.0000 </r>
      </set>
      <set comment="kpoint 242">
       <r>  -17.5722    1.0000 </r>
       <r>  -17.5722    1.0000 </r>
       <r>  -14.9838    1.0000 </r>
       <r>  -14.9838    1.0000 </r>
       <r>   -9.7930    1.0000 </r>
       <r>   -9.7930    1.0000 </r>
       <r>   -5.3392    1.0000 </r>
       <r>   -5.3392    1.0000 </r>
       <r>   -0.7219    0.0000 </r>
       <r>   -0.7219    0.0000 </r>
       <r>    5.7355    0.0000 </r>
       <r>    5.7355    0.0000 </r>
      </set>
      <set comment="kpoint 243">
       <r>  -17.4519    1.0000 </r>
       <r>  -17.4519    1.0000 </r>
       <r>  -15.2544    1.0000 </r>
       <r>  -15.2544    1.0000 </r>
       <r>   -9.5399    1.0000 </r>
       <r>   -9.5399    1.0000 </r>
       <r>   -5.2906    1.0000 </r>
       <r>   -5.2906    1.0000 </r>
       <r>   -0.8573    0.0000 </r>
       <r>   -0.8573    0.0000 </r>
       <r>    5.3457    0.0000 </r>
       <r>    5.3457    0.0000 </r>
      </set>
      <set comment="kpoint 244">
       <r>  -17.3272    1.0000 </r>
       <r>  -17.3272    1.0000 </r>
       <r>  -15.4975    1.0000 </r>
       <r>  -15.4975    1.0000 </r>
       <r>   -9.3304    1.0000 </r>
       <r>   -9.3304    1.0000 </r>
       <r>   -5.2472    1.0000 </r>
       <r>   -5.2472    1.0000 </r>
       <r>   -0.9729    0.0000 </r>
       <r>   -0.9729    0.0000 </r>
       <r>    5.0280    0.0000 </r>
       <r>    5.0280    0.0000 </r>
      </set>
      <set comment="kpoint 245">
       <r>  -17.2096    1.0000 </r>
       <r>  -17.2096    1.0000 </r>
       <r>  -15.7005    1.0000 </r>
       <r>  -15.7005    1.0000 </r>
       <r>   -9.1733    1.0000 </r>
       <r>   -9.1733    1.0000 </r>
       <r>   -5.2127    1.0000 </r>
       <r>   -5.2127    1.0000 </r>
       <r>   -1.0615    0.0000 </r>
       <r>   -1.0615    0.0000 </r>
       <r>    4.7928    0.0000 </r>
       <r>    4.7928    0.0000 </r>
      </set>
      <set comment="kpoint 246">
       <r>  -17.1192    1.0000 </r>
       <r>  -17.1192    1.0000 </r>
       <r>  -15.8424    1.0000 </r>
       <r>  -15.8424    1.0000 </r>
       <r>   -9.0759    1.0000 </r>
       <r>   -9.0759    1.0000 </r>
       <r>   -5.1905    1.0000 </r>
       <r>   -5.1905    1.0000 </r>
       <r>   -1.1172    0.0000 </r>
       <r>   -1.1172    0.0000 </r>
       <r>    4.6482    0.0000 </r>
       <r>    4.6482    0.0000 </r>
      </set>
      <set comment="kpoint 247">
       <r>  -17.0839    1.0000 </r>
       <r>  -17.0839    1.0000 </r>
       <r>  -15.8949    1.0000 </r>
       <r>  -15.8949    1.0000 </r>
       <r>   -9.0428    1.0000 </r>
       <r>   -9.0428    1.0000 </r>
       <r>   -5.1828    1.0000 </r>
       <r>   -5.1828    1.0000 </r>
       <r>   -1.1362    0.0000 </r>
       <r>   -1.1362    0.0000 </r>
       <r>    4.5994    0.0000 </r>
       <r>    4.5994    0.0000 </r>
      </set>
     </set>
    </set>
   </array>
  </eigenvalues>
  <separator name="orbital magnetization" >
   <v name="MAGDIPOLOUT">      0.00000000      0.00000000      0.00000000</v>
  </separator>
 </calculation>
 <structure name="finalpos" >
  <crystal>
   <varray name="basis" >
    <v>       4.26193833       0.00000000       0.00000000 </v>
    <v>       0.00000000       2.50468072       0.00000000 </v>
    <v>       0.00000000       0.00000000      19.75100281 </v>
   </varray>
   <i name="volume">    210.83790140 </i>
   <varray name="rec_basis" >
    <v>       0.23463502       0.00000000       0.00000000 </v>
    <v>       0.00000000       0.39925248       0.00000000 </v>
    <v>       0.00000000       0.00000000       0.05063034 </v>
   </varray>
  </crystal>
  <varray name="positions" >
   <v>       0.00039648       0.00000000       0.00000000 </v>
   <v>       0.16627019       0.50000000      -0.00000000 </v>
   <v>       0.50039648       0.50000000       0.00000000 </v>
   <v>       0.66627019      -0.00000000      -0.00000000 </v>
  </varray>
 </structure>
</modeling>
