gr                                      
           1
     4.261938    0.000000    0.000000
     0.000000    2.504681    0.000000
     0.000000    0.000000   19.751003
   C 
   4
Direct configuration=     1
   0.00039382  0.00000000  0.00000000
   0.16627284  0.50000000  0.00000000
   0.50039382  0.50000000  0.00000000
   0.66627284  0.00000000  0.00000000
Direct configuration=     2
   0.00040730 -0.00000000  0.00000000
   0.16625937  0.50000000  0.00000000
   0.50040730  0.50000000  0.00000000
   0.66625937 -0.00000000  0.00000000
Direct configuration=     3
   0.00039648  0.00000000  0.00000000
   0.16627019  0.50000000 -0.00000000
   0.50039648  0.50000000  0.00000000
   0.66627019 -0.00000000 -0.00000000
