    4    4  400    1
  0.5270948E+02  0.4258353E-09  0.2517388E-09  0.1966785E-08  0.5000000E-15
  1.000000000000000E-004
  CAR 
 gr                                      
     16    247     12
 
  0.0000000E+00  0.0000000E+00  0.0000000E+00  0.1157407E-02
    1      -22.113753
    2      -16.763295
    3      -15.883960
    4      -10.250916
    5       -9.419486
    6       -5.957362
    7       -5.746962
    8       -4.943113
    9       -1.127876
   10        0.540601
   11        1.338897
   12        1.729403
 
  0.4166667E-01  0.0000000E+00  0.0000000E+00  0.2314815E-02
    1      -22.103401
    2      -16.953042
    3      -15.679150
    4      -10.238617
    5       -9.409115
    6       -5.980875
    7       -5.787635
    8       -5.012545
    9       -1.043410
   10        0.554629
   11        1.353075
   12        1.743760
 
  0.8333333E-01  0.0000000E+00  0.0000000E+00  0.2314815E-02
    1      -22.072352
    2      -17.314091
    3      -15.273002
    4      -10.201738
    5       -9.378052
    6       -6.050068
    7       -5.908142
    8       -5.204120
    9       -0.806911
   10        0.596714
   11        1.395606
   12        1.786826
 
  0.1250000E+00  0.0000000E+00  0.0000000E+00  0.2314815E-02
    1      -22.020625
    2      -17.704092
    3      -14.808145
    4      -10.140337
    5       -9.326447
    6       -6.161137
    7       -6.104185
    8       -5.481460
    9       -0.455285
   10        0.666851
   11        1.466477
   12        1.858605
 
  0.1666667E+00  0.0000000E+00  0.0000000E+00  0.2314815E-02
    1      -21.948254
    2      -18.091923
    3      -14.316172
    4      -10.054510
    5       -9.254560
    6       -6.369269
    7       -6.308451
    8       -5.809713
    9       -0.024276
   10        0.765032
   11        1.565668
   12        1.959094
 
  0.2083333E+00  0.0000000E+00  0.0000000E+00  0.2314815E-02
    1      -21.855290
    2      -18.468743
    3      -13.806605
    4       -9.944399
    5       -9.162761
    6       -6.695514
    7       -6.485336
    8       -6.163791
    9        0.459767
   10        0.891245
   11        1.693151
   12        2.088294
 
  0.2500000E+00  0.0000000E+00  0.0000000E+00  0.2314815E-02
    1      -21.741795
    2      -18.831040
    3      -13.283855
    4       -9.810190
    5       -9.051550
    6       -7.074424
    7       -6.684814
    8       -6.527403
    9        0.978910
   10        1.045468
   11        1.848879
   12        2.246199
 
  0.2916667E+00  0.0000000E+00  0.0000000E+00  0.2314815E-02
    1      -21.607851
    2      -19.177051
    3      -12.750828
    4       -9.652127
    5       -8.921569
    6       -7.497524
    7       -6.900155
    8       -6.890166
    9        1.227667
   10        1.520698
   11        2.032788
   12        2.432807
 
  0.3333333E+00  0.0000000E+00  0.0000000E+00  0.2314815E-02
    1      -21.453553
    2      -19.505726
    3      -12.209993
    4       -9.470516
    5       -8.773626
    6       -7.956780
    7       -7.245338
    8       -7.125220
    9        1.437800
   10        2.075790
   11        2.244778
   12        2.648108
 
  0.3750000E+00  0.0000000E+00  0.0000000E+00  0.2314815E-02
    1      -21.279016
    2      -19.816363
    3      -11.663778
    4       -9.265742
    5       -8.608723
    6       -8.444852
    7       -7.588409
    8       -7.354610
    9        1.675805
   10        2.484678
   11        2.636099
   12        2.892086
 
  0.4166667E+00  0.0000000E+00  0.0000000E+00  0.2314815E-02
    1      -21.084376
    2      -20.108449
    3      -11.114781
    4       -9.038283
    5       -8.955191
    6       -8.428091
    7       -7.916248
    8       -7.583696
    9        1.941597
   10        2.752152
   11        3.164712
   12        3.191074
 
  0.4583333E+00  0.0000000E+00  0.0000000E+00  0.2314815E-02
    1      -20.869791
    2      -20.381584
    3      -10.565892
    4       -9.482040
    5       -8.788739
    6       -8.233234
    7       -8.226616
    8       -7.808573
    9        2.235049
   10        2.903931
   11        3.046323
   12        3.465940
 
  0.5000000E+00  0.0000000E+00  0.0000000E+00  0.1157407E-02
    1      -20.635453
    2      -20.635453
    3      -10.020389
    4      -10.020389
    5       -8.517862
    6       -8.517862
    7       -8.025985
    8       -8.025985
    9        2.555958
   10        2.555958
   11        3.363330
   12        3.363412
 
  0.0000000E+00  0.2777778E-01  0.0000000E+00  0.2314815E-02
    1      -22.100621
    2      -16.751974
    3      -15.873348
    4      -10.235312
    5       -9.478294
    6       -6.011503
    7       -5.778809
    8       -4.927201
    9       -1.133635
   10        0.558371
   11        1.356921
   12        1.747650
 
  0.4166667E-01  0.2777778E-01  0.0000000E+00  0.4629630E-02
    1      -22.090271
    2      -16.941602
    3      -15.668717
    4      -10.223018
    5       -9.467895
    6       -6.038308
    7       -5.815468
    8       -4.996804
    9       -1.049128
   10        0.572400
   11        1.371098
   12        1.762006
 
  0.8333333E-01  0.2777778E-01  0.0000000E+00  0.4629630E-02
    1      -22.059226
    2      -17.302439
    3      -15.262962
    4      -10.186152
    5       -9.436746
    6       -6.119118
    7       -5.922324
    8       -5.188763
    9       -0.812632
   10        0.614489
   11        1.413625
   12        1.805083
 
  0.1250000E+00  0.2777778E-01  0.0000000E+00  0.4629630E-02
    1      -22.007506
    2      -17.692230
    3      -14.798623
    4      -10.124773
    5       -9.384994
    6       -6.258238
    7       -6.087311
    8       -5.466484
    9       -0.461274
   10        0.684632
   11        1.484490
   12        1.876854
 
  0.1666667E+00  0.2777778E-01  0.0000000E+00  0.4629630E-02
    1      -21.935145
    2      -18.079875
    3      -14.307285
    4      -10.038978
    5       -9.312886
    6       -6.470462
    7       -6.283938
    8       -5.795008
    9       -0.030907
   10        0.782822
   11        1.583675
   12        1.977345
 
  0.2083333E+00  0.2777778E-01  0.0000000E+00  0.4629630E-02
    1      -21.842195
    2      -18.456532
    3      -13.798489
    4       -9.928907
    5       -9.220782
    6       -6.763920
    7       -6.489915
    8       -6.149234
    9        0.452112
   10        0.909046
   11        1.711148
   12        2.106547
 
  0.2500000E+00  0.2777778E-01  0.0000000E+00  0.4629630E-02
    1      -21.728718
    2      -18.818688
    3      -13.276670
    4       -9.794748
    5       -9.109162
    6       -7.123578
    7       -6.705096
    8       -6.512897
    9        0.969877
   10        1.063281
   11        1.866866
   12        2.264461
 
  0.2916667E+00  0.2777778E-01  0.0000000E+00  0.4629630E-02
    1      -21.594795
    2      -19.164577
    3      -12.744772
    4       -9.636743
    5       -8.978646
    6       -7.533711
    7       -6.930178
    8       -6.875643
    9        1.245495
   10        1.509983
   11        2.050763
   12        2.451067
 
  0.3333333E+00  0.2777778E-01  0.0000000E+00  0.4629630E-02
    1      -21.440523
    2      -19.493148
    3      -12.205306
    4       -9.455199
    5       -8.830010
    6       -7.983349
    7       -7.230757
    8       -7.162029
    9        1.455643
   10        2.063152
   11        2.262742
   12        2.666373
 
  0.3750000E+00  0.2777778E-01  0.0000000E+00  0.4629630E-02
    1      -21.266017
    2      -19.803695
    3      -11.660761
    4       -9.250502
    5       -8.664216
    6       -8.463952
    7       -7.573743
    8       -7.396454
    9        1.693665
   10        2.502636
   11        2.621447
   12        2.910360
 
  0.4166667E+00  0.2777778E-01  0.0000000E+00  0.4629630E-02
    1      -21.071412
    2      -20.095702
    3      -11.113806
    4       -9.023128
    5       -8.968369
    6       -8.482444
    7       -7.901485
    8       -7.629398
    9        1.959479
   10        2.770117
   11        3.174923
   12        3.182998
 
  0.4583333E+00  0.2777778E-01  0.0000000E+00  0.4629630E-02
    1      -20.856870
    2      -20.368770
    3      -10.567423
    4       -9.490478
    5       -8.773675
    6       -8.286135
    7       -8.211752
    8       -7.857276
    9        2.252963
   10        2.922008
   11        3.064322
   12        3.484380
 
  0.5000000E+00  0.2777778E-01  0.0000000E+00  0.2314815E-02
    1      -20.622582
    2      -20.622582
    3      -10.025008
    4      -10.025008
    5       -8.502896
    6       -8.502896
    7       -8.077039
    8       -8.077039
    9        2.573926
   10        2.573926
   11        3.381355
   12        3.381355
 
  0.0000000E+00  0.5555556E-01  0.0000000E+00  0.2314815E-02
    1      -22.061236
    2      -16.718013
    3      -15.841712
    4      -10.188533
    5       -9.649901
    6       -6.169701
    7       -5.873373
    8       -4.879482
    9       -1.151708
   10        0.611688
   11        1.410984
   12        1.802396
 
  0.4166667E-01  0.5555556E-01  0.0000000E+00  0.4629630E-02
    1      -22.050890
    2      -16.907305
    3      -15.637602
    4      -10.176252
    5       -9.639412
    6       -6.203012
    7       -5.901423
    8       -4.949616
    9       -1.067064
   10        0.625721
   11        1.425158
   12        1.816748
 
  0.8333333E-01  0.5555556E-01  0.0000000E+00  0.4629630E-02
    1      -22.019857
    2      -17.267511
    3      -15.233036
    4      -10.139428
    5       -9.607986
    6       -6.301153
    7       -5.985007
    8       -5.142759
    9       -0.830567
   10        0.667818
   11        1.467674
   12        1.859818
 
  0.1250000E+00  0.5555556E-01  0.0000000E+00  0.4629630E-02
    1      -21.968159
    2      -17.656677
    3      -14.770281
    4      -10.078116
    5       -9.555754
    6       -6.460158
    7       -6.121289
    8       -5.421650
    9       -0.480015
   10        0.737976
   11        1.538523
   12        1.931602
 
  0.1666667E+00  0.5555556E-01  0.0000000E+00  0.4629630E-02
    1      -21.895831
    2      -18.043761
    3      -14.280901
    4       -9.992416
    5       -9.482934
    6       -6.676558
    7       -6.303270
    8       -5.750997
    9       -0.051595
   10        0.836189
   11        1.637684
   12        2.032099
 
  0.2083333E+00  0.5555556E-01  0.0000000E+00  0.4629630E-02
    1      -21.802923
    2      -18.419926
    3      -13.774489
    4       -9.882468
    5       -9.389841
    6       -6.948593
    7       -6.519706
    8       -6.105668
    9        0.428304
   10        0.962440
   11        1.765128
   12        2.161305
 
  0.2500000E+00  0.5555556E-01  0.0000000E+00  0.4629630E-02
    1      -21.689498
    2      -18.781657
    3      -13.255565
    4       -9.748459
    5       -9.276895
    6       -7.274726
    7       -6.757829
    8       -6.469480
    9        0.941878
   10        1.116707
   11        1.920811
   12        2.319224
 
  0.2916667E+00  0.5555556E-01  0.0000000E+00  0.4629630E-02
    1      -21.555640
    2      -19.127179
    3      -12.727190
    4       -9.590632
    5       -9.144633
    6       -7.651187
    7       -7.006907
    8       -6.832172
    9        1.298957
   10        1.476858
   11        2.104671
   12        2.505843
 
  0.3333333E+00  0.5555556E-01  0.0000000E+00  0.4629630E-02
    1      -21.401446
    2      -19.455433
    3      -12.192028
    4       -9.409294
    5       -8.993726
    6       -8.071519
    7       -7.259539
    8       -7.187103
    9        1.509145
   10        2.024160
   11        2.316614
   12        2.721163
 
  0.3750000E+00  0.5555556E-01  0.0000000E+00  0.4629630E-02
    1      -21.227032
    2      -19.765707
    3      -11.652762
    4       -9.204829
    5       -8.824996
    6       -8.527990
    7       -7.529830
    8       -7.510760
    9        1.747212
   10        2.556486
   11        2.576230
   12        2.965168
 
  0.4166667E+00  0.5555556E-01  0.0000000E+00  0.4629630E-02
    1      -21.032536
    2      -20.057480
    3      -11.112309
    4       -9.012953
    5       -8.977712
    6       -8.639442
    7       -7.857274
    8       -7.756929
    9        2.013081
   10        2.823984
   11        3.124814
   12        3.237839
 
  0.4583333E+00  0.5555556E-01  0.0000000E+00  0.4629630E-02
    1      -20.818122
    2      -20.330346
    3      -10.573970
    4       -9.519484
    5       -8.728540
    6       -8.438270
    7       -8.167228
    8       -7.995127
    9        2.306640
   10        2.976059
   11        3.118299
   12        3.539249
 
  0.5000000E+00  0.5555556E-01  0.0000000E+00  0.2314815E-02
    1      -20.583983
    2      -20.583983
    3      -10.041551
    4      -10.041551
    5       -8.458061
    6       -8.458061
    7       -8.222924
    8       -8.222924
    9        2.627726
   10        2.627726
   11        3.435416
   12        3.435750
 
  0.0000000E+00  0.8333333E-01  0.0000000E+00  0.2314815E-02
    1      -21.995635
    2      -16.661426
    3      -15.789682
    4      -10.110677
    5       -9.921157
    6       -6.420522
    7       -6.027817
    8       -4.800017
    9       -1.184460
   10        0.700575
   11        1.501066
   12        1.893633
 
  0.4166667E-01  0.8333333E-01  0.0000000E+00  0.4629630E-02
    1      -21.985295
    2      -16.850216
    3      -15.586401
    4      -10.098419
    5       -9.910495
    6       -6.459921
    7       -6.046471
    8       -4.871090
    9       -1.099551
   10        0.714610
   11        1.515233
   12        1.907991
 
  0.8333333E-01  0.8333333E-01  0.0000000E+00  0.4629630E-02
    1      -21.954284
    2      -17.209406
    3      -15.183850
    4      -10.061664
    5       -9.878540
    6       -6.571840
    7       -6.106882
    8       -5.066319
    9       -0.862995
   10        0.756715
   11        1.557731
   12        1.951061
 
  0.1250000E+00  0.8333333E-01  0.0000000E+00  0.4629630E-02
    1      -21.902624
    2      -17.597529
    3      -14.723851
    4      -10.000469
    5       -9.825386
    6       -6.743613
    7       -6.216329
    8       -5.347247
    9       -0.513786
   10        0.826887
   11        1.628549
   12        2.022847
 
  0.1666667E+00  0.8333333E-01  0.0000000E+00  0.4629630E-02
    1      -21.830349
    2      -17.983668
    3      -14.237920
    4       -9.914932
    5       -9.751192
    6       -6.964177
    7       -6.377269
    8       -5.678006
    9       -0.088692
   10        0.925122
   11        1.727666
   12        2.123348
 
  0.2083333E+00  0.8333333E-01  0.0000000E+00  0.4629630E-02
    1      -21.737510
    2      -18.359005
    3      -13.735750
    4       -9.805194
    5       -9.656183
    6       -7.226449
    7       -6.585594
    8       -6.033428
    9        0.385872
   10        1.051404
   11        1.855054
   12        2.252564
 
  0.2500000E+00  0.8333333E-01  0.0000000E+00  0.4629630E-02
    1      -21.624175
    2      -18.720019
    3      -13.222032
    4       -9.671442
    5       -9.540649
    6       -7.527177
    7       -6.831688
    8       -6.397476
    9        0.892278
   10        1.205710
   11        2.010671
   12        2.410491
 
  0.2916667E+00  0.8333333E-01  0.0000000E+00  0.4629630E-02
    1      -21.490425
    2      -19.064920
    3      -12.700062
    4       -9.513921
    5       -9.404954
    6       -7.865916
    7       -7.102415
    8       -6.760056
    9        1.388005
   10        1.418496
   11        2.194457
   12        2.597126
 
  0.3333333E+00  0.8333333E-01  0.0000000E+00  0.4629630E-02
    1      -21.336361
    2      -19.392641
    3      -12.172817
    4       -9.332937
    5       -9.249532
    6       -8.243077
    7       -7.383960
    8       -7.114656
    9        1.598242
   10        1.955735
   11        2.406328
   12        2.812463
 
  0.3750000E+00  0.8333333E-01  0.0000000E+00  0.4629630E-02
    1      -21.162102
    2      -19.702455
    3      -11.643390
    4       -9.128871
    5       -9.074890
    6       -8.657588
    7       -7.664808
    8       -7.456924
    9        1.836362
   10        2.496941
   11        2.646148
   12        3.056491
 
  0.4166667E+00  0.8333333E-01  0.0000000E+00  0.4629630E-02
    1      -20.967789
    2      -19.993832
    3      -11.115237
    4       -9.105743
    5       -8.902198
    6       -8.881609
    7       -7.937278
    8       -7.783846
    9        2.102291
   10        2.913660
   11        3.035443
   12        3.329196
 
  0.4583333E+00  0.8333333E-01  0.0000000E+00  0.4629630E-02
    1      -20.753589
    2      -20.266358
    3      -10.592350
    4       -9.581818
    5       -8.670344
    6       -8.653510
    7       -8.197054
    8       -8.093255
    9        2.395930
   10        3.065710
   11        3.208169
   12        3.556771
 
  0.5000000E+00  0.8333333E-01  0.0000000E+00  0.2314815E-02
    1      -20.519701
    2      -20.519701
    3      -10.079398
    4      -10.079398
    5       -8.441850
    6       -8.441850
    7       -8.383548
    8       -8.383548
    9        2.717140
   10        2.717140
   11        3.525457
   12        3.525468
 
  0.0000000E+00  0.1111111E+00  0.0000000E+00  0.2314815E-02
    1      -21.903880
    2      -16.582233
    3      -15.718456
    4      -10.273649
    5      -10.001909
    6       -6.748272
    7       -6.237721
    8       -4.688903
    9       -1.235754
   10        0.825059
   11        1.627129
   12        2.021379
 
  0.4166667E-01  0.1111111E+00  0.0000000E+00  0.4629630E-02
    1      -21.893550
    2      -16.770461
    3      -15.516247
    4      -10.262691
    5       -9.989684
    6       -6.792657
    7       -6.247127
    8       -4.761427
    9       -1.150374
   10        0.839093
   11        1.641286
   12        2.035736
 
  0.8333333E-01  0.1111111E+00  0.0000000E+00  0.4629630E-02
    1      -21.862571
    2      -17.128299
    3      -15.116608
    4      -10.229827
    5       -9.953031
    6       -6.915462
    7       -6.284476
    8       -4.959832
    9       -0.913581
   10        0.881196
   11        1.683754
   12        2.078807
 
  0.1250000E+00  0.1111111E+00  0.0000000E+00  0.4629630E-02
    1      -21.810963
    2      -17.514962
    3      -14.660757
    4      -10.175086
    5       -9.892005
    6       -7.097317
    7       -6.365400
    8       -5.243804
    9       -0.566228
   10        0.951370
   11        1.754520
   12        2.150594
 
  0.1666667E+00  0.1111111E+00  0.0000000E+00  0.4629630E-02
    1      -21.738763
    2      -17.899759
    3      -14.180127
    4      -10.098511
    5       -9.806706
    6       -7.322606
    7       -6.499158
    8       -5.576628
    9       -0.145921
   10        1.049613
   11        1.853565
   12        2.251098
 
  0.2083333E+00  0.1111111E+00  0.0000000E+00  0.4629630E-02
    1      -21.646024
    2      -18.273914
    3      -13.684585
    4      -10.000149
    5       -9.697275
    6       -7.581200
    7       -6.687008
    8       -5.933111
    9        0.320921
   10        1.175913
   11        1.980860
   12        2.380319
 
  0.2500000E+00  0.1111111E+00  0.0000000E+00  0.4629630E-02
    1      -21.532814
    2      -18.633901
    3      -13.179136
    4       -9.880037
    5       -9.563900
    6       -7.867241
    7       -6.923874
    8       -6.297460
    9        0.816969
   10        1.330247
   11        2.136362
   12        2.538256
 
  0.2916667E+00  0.1111111E+00  0.0000000E+00  0.4629630E-02
    1      -21.399216
    2      -18.977917
    3      -12.667525
    4       -9.738177
    5       -9.406827
    6       -8.178354
    7       -7.199895
    8       -6.659831
    9        1.330553
   10        1.512577
   11        2.320016
   12        2.724904
 
  0.3333333E+00  0.1111111E+00  0.0000000E+00  0.4629630E-02
    1      -21.245336
    2      -19.304875
    3      -12.153337
    4       -9.574508
    5       -9.226360
    6       -8.515113
    7       -7.501828
    8       -7.013908
    9        1.722855
   10        1.853272
   11        2.531746
   12        2.940257
 
  0.3750000E+00  0.1111111E+00  0.0000000E+00  0.4629630E-02
    1      -21.071295
    2      -19.614034
    3      -11.640477
    4       -9.388866
    5       -9.022882
    6       -8.880079
    7       -7.814779
    8       -7.355475
    9        1.961018
   10        2.378593
   11        2.771440
   12        3.184308
 
  0.4166667E+00  0.1111111E+00  0.0000000E+00  0.4629630E-02
    1      -20.877241
    2      -19.904847
    3      -11.133452
    4       -9.275894
    5       -9.180950
    6       -8.796862
    7       -8.124656
    8       -7.681609
    9        2.226990
   10        2.900972
   11        3.038914
   12        3.457044
 
  0.4583333E+00  0.1111111E+00  0.0000000E+00  0.4629630E-02
    1      -20.663347
    2      -20.176889
    3      -10.637521
    4       -9.703015
    5       -8.950360
    6       -8.548889
    7       -8.420732
    8       -7.990203
    9        2.520678
   10        3.190663
   11        3.333699
   12        3.414486
 
  0.5000000E+00  0.1111111E+00  0.0000000E+00  0.2314815E-02
    1      -20.429816
    2      -20.429816
    3      -10.158646
    4      -10.158646
    5       -8.696801
    6       -8.696801
    7       -8.279693
    8       -8.279693
    9        2.841959
   10        2.841959
   11        3.651208
   12        3.653078
 
  0.0000000E+00  0.1388889E+00  0.0000000E+00  0.2314815E-02
    1      -21.786062
    2      -16.480466
    3      -15.630073
    4      -10.686858
    5       -9.862467
    6       -7.136122
    7       -6.497463
    8       -4.546282
    9       -1.310756
   10        0.985160
   11        1.789117
   12        2.185636
 
  0.4166667E-01  0.1388889E+00  0.0000000E+00  0.4629630E-02
    1      -21.775746
    2      -16.668242
    3      -15.429086
    4      -10.675405
    5       -9.850288
    6       -7.184699
    7       -6.497755
    8       -4.620940
    9       -1.224552
   10        0.999188
   11        1.803258
   12        2.199992
 
  0.8333333E-01  0.1388889E+00  0.0000000E+00  0.4629630E-02
    1      -21.744808
    2      -17.024476
    3      -15.033411
    4      -10.641016
    5       -9.813772
    6       -7.316743
    7       -6.511697
    8       -4.823935
    9       -0.987099
   10        1.041274
   11        1.845678
   12        2.243061
 
  0.1250000E+00  0.1388889E+00  0.0000000E+00  0.4629630E-02
    1      -21.693268
    2      -17.409256
    3      -14.583540
    4      -10.583593
    5       -9.752977
    6       -7.507579
    7       -6.561891
    8       -5.112183
    9       -0.642006
   10        1.111427
   11        1.916363
   12        2.314844
 
  0.1666667E+00  0.1388889E+00  0.0000000E+00  0.4629630E-02
    1      -21.621166
    2      -17.792287
    3      -14.110778
    4      -10.502949
    5       -9.668002
    6       -7.738286
    7       -6.663282
    8       -5.447811
    9       -0.228006
   10        1.209649
   11        2.015291
   12        2.415346
 
  0.2083333E+00  0.1388889E+00  0.0000000E+00  0.4629630E-02
    1      -21.528556
    2      -18.164875
    3      -13.625317
    4      -10.398776
    5       -9.558989
    6       -7.996814
    7       -6.821647
    8       -5.805664
    9        0.228578
   10        1.335937
   11        2.142429
   12        2.544567
 
  0.2500000E+00  0.1388889E+00  0.0000000E+00  0.4629630E-02
    1      -21.415507
    2      -18.523501
    3      -13.132761
    4      -10.270582
    5       -9.426129
    6       -8.275687
    7       -7.035874
    8       -6.170328
    9        0.710903
   10        1.490271
   11        2.297733
   12        2.702508
 
  0.2916667E+00  0.1388889E+00  0.0000000E+00  0.4629630E-02
    1      -21.282109
    2      -18.866344
    3      -12.637722
    4      -10.117624
    5       -9.269666
    6       -8.570653
    7       -7.299744
    8       -6.532325
    9        1.207831
   10        1.672612
   11        2.481144
   12        2.889165
 
  0.3333333E+00  0.1388889E+00  0.0000000E+00  0.4629630E-02
    1      -21.128469
    2      -19.192293
    3      -12.144967
    4       -9.938811
    5       -9.089908
    6       -8.880174
    7       -7.603208
    8       -6.885614
    9        1.711490
   10        1.882907
   11        2.692586
   12        3.104532
 
  0.3750000E+00  0.1388889E+00  0.0000000E+00  0.4629630E-02
    1      -20.954714
    2      -19.500585
    3      -11.659905
    4       -9.732662
    5       -9.205302
    6       -8.887234
    7       -7.933366
    8       -7.226165
    9        2.121088
   10        2.215900
   11        2.931959
   12        3.348601
 
  0.4166667E+00  0.1388889E+00  0.0000000E+00  0.4629630E-02
    1      -20.760998
    2      -19.790655
    3      -11.188713
    4       -9.549433
    5       -9.497437
    6       -8.662114
    7       -8.275414
    8       -7.551177
    9        2.387072
   10        2.716226
   11        3.199135
   12        3.621360
 
  0.4583333E+00  0.1388889E+00  0.0000000E+00  0.4629630E-02
    1      -20.547503
    2      -20.062060
    3      -10.737922
    4       -9.917356
    5       -9.231739
    6       -8.614079
    7       -8.415127
    8       -7.858624
    9        2.680764
   10        3.208345
   11        3.350756
   12        3.493947
 
  0.5000000E+00  0.1388889E+00  0.0000000E+00  0.2314815E-02
    1      -20.314441
    2      -20.314441
    3      -10.313171
    4      -10.313171
    5       -8.935915
    6       -8.935915
    7       -8.146995
    8       -8.146995
    9        3.002043
   10        3.002043
   11        3.688530
   12        3.688831
 
  0.0000000E+00  0.1666667E+00  0.0000000E+00  0.2314815E-02
    1      -21.642303
    2      -16.356163
    3      -15.527965
    4      -11.140053
    5       -9.692670
    6       -7.568322
    7       -6.800651
    8       -4.372339
    9       -1.415564
   10        1.180879
   11        1.986950
   12        2.386408
 
  0.4166667E-01  0.1666667E+00  0.0000000E+00  0.4629630E-02
    1      -21.632005
    2      -16.543889
    3      -15.328211
    4      -11.127757
    5       -9.680551
    6       -7.620639
    7       -6.791908
    8       -4.450124
    9       -1.327897
   10        1.194895
   11        2.001066
   12        2.400762
 
  0.8333333E-01  0.1666667E+00  0.0000000E+00  0.4629630E-02
    1      -21.601117
    2      -16.898391
    3      -14.937907
    4      -11.090757
    5       -9.644216
    6       -7.761063
    7       -6.782112
    8       -4.659655
    9       -1.088880
   10        1.236948
   11        2.043409
   12        2.443824
 
  0.1250000E+00  0.1666667E+00  0.0000000E+00  0.4629630E-02
    1      -21.549662
    2      -17.280849
    3      -14.496743
    4      -11.028691
    5       -9.583722
    6       -7.960435
    7       -6.799852
    8       -4.953743
    9       -0.746190
   10        1.307050
   11        2.113961
   12        2.515598
 
  0.1666667E+00  0.1666667E+00  0.0000000E+00  0.4629630E-02
    1      -21.477681
    2      -17.661638
    3      -14.035881
    4      -10.940898
    5       -9.499172
    6       -8.197167
    7       -6.865009
    8       -5.293018
    9       -0.339978
   10        1.405215
   11        2.212693
   12        2.616090
 
  0.2083333E+00  0.1666667E+00  0.0000000E+00  0.4629630E-02
    1      -21.385230
    2      -18.032225
    3      -13.566176
    4      -10.826315
    5       -9.390709
    6       -8.457888
    7       -6.987339
    8       -5.652514
    9        0.103760
   10        1.531448
   11        2.339562
   12        2.745302
 
  0.2500000E+00  0.1666667E+00  0.0000000E+00  0.4629630E-02
    1      -21.272383
    2      -18.389110
    3      -13.094417
    4      -10.683349
    5       -9.258526
    6       -8.734220
    7       -7.169225
    8       -6.017413
    9        0.568967
   10        1.685737
   11        2.494504
   12        2.903239
 
  0.2916667E+00  0.1666667E+00  0.0000000E+00  0.4629630E-02
    1      -21.139232
    2      -18.730454
    3      -12.626875
    4      -10.509742
    5       -9.102870
    6       -9.020881
    7       -7.407622
    8       -6.378754
    9        1.045308
   10        1.868047
   11        2.677431
   12        3.089897
 
  0.3333333E+00  0.1666667E+00  0.0000000E+00  0.4629630E-02
    1      -20.985890
    2      -19.055118
    3      -12.170334
    4      -10.302587
    5       -9.314861
    6       -8.924048
    7       -7.695429
    8       -6.730868
    9        1.525648
   10        2.078322
   11        2.888208
   12        3.305272
 
  0.3750000E+00  0.1666667E+00  0.0000000E+00  0.4629630E-02
    1      -20.812492
    2      -19.362310
    3      -11.732047
    4      -10.058802
    5       -9.615176
    6       -8.722443
    7       -8.022568
    8       -7.069972
    9        2.004703
   10        2.316485
   11        3.126601
   12        3.549354
 
  0.4166667E+00  0.1666667E+00  0.0000000E+00  0.4629630E-02
    1      -20.619202
    2      -19.651439
    3      -11.318572
    4       -9.922927
    5       -9.776562
    6       -8.498519
    7       -8.376771
    8       -7.393425
    9        2.478287
   10        2.582443
   11        3.391969
   12        3.822131
 
  0.4583333E+00  0.1666667E+00  0.0000000E+00  0.4629630E-02
    1      -20.406208
    2      -19.922040
    3      -10.933599
    4      -10.241461
    5       -9.457646
    6       -8.744073
    7       -8.252853
    8       -7.699302
    9        2.876088
   10        2.942793
   11        3.545905
   12        3.675096
 
  0.5000000E+00  0.1666667E+00  0.0000000E+00  0.2314815E-02
    1      -20.173733
    2      -20.173733
    3      -10.576214
    4      -10.576214
    5       -9.109356
    6       -9.109356
    7       -7.986151
    8       -7.986151
    9        3.197294
   10        3.197294
   11        3.394078
   12        3.394102
 