<?xml version="1.0" encoding="ISO-8859-1"?>
<modeling>
 <generator>
  <i name="program" type="string">vasp </i>
  <i name="version" type="string">5.3.5  </i>
  <i name="subversion" type="string">31Mar14 (build Mar 02 2015 18:14:16) complex                          parallel </i>
  <i name="platform" type="string">LinuxIFC </i>
  <i name="date" type="string">2018 08 09 </i>
  <i name="time" type="string">21:00:44 </i>
 </generator>
 <incar>
  <i type="string" name="SYSTEM">  gr</i>
  <i type="string" name="PREC">accurate : accuracy</i>
  <i type="string" name="ALGO"> FAST.</i>
  <i type="int" name="NELM">   100</i>
  <i type="int" name="NELMDL">    -3</i>
  <i type="int" name="NELMIN">     5</i>
  <i type="int" name="IBRION">     1</i>
  <i name="EDIFF">      0.00000000</i>
  <i name="EDIFFG">     -0.00000100</i>
  <i type="int" name="NSW">   400</i>
  <i type="int" name="ISIF">     2</i>
  <i name="ENCUT">   2000.00000000</i>
  <i type="int" name="ISMEAR">     0</i>
  <i name="SIGMA">      0.05000000</i>
  <i type="int" name="NWRITE">     2</i>
  <i type="logical" name="LWAVE"> F  </i>
  <i type="logical" name="LCHARG"> F  </i>
  <i type="int" name="NELM">   100</i>
 </incar>
 <kpoints>
  <generation param="Gamma">
   <v type="int" name="divisions">      24       36        1 </v>
   <v name="usershift">      0.00000000       0.00000000       0.00000000 </v>
   <v name="genvec1">      0.04166667       0.00000000       0.00000000 </v>
   <v name="genvec2">      0.00000000       0.02777778       0.00000000 </v>
   <v name="genvec3">      0.00000000       0.00000000       1.00000000 </v>
   <v name="shift">      0.00000000       0.00000000       0.00000000 </v>
  </generation>
  <varray name="kpointlist" >
   <v>       0.00000000       0.00000000       0.00000000 </v>
   <v>       0.04166667       0.00000000       0.00000000 </v>
   <v>       0.08333333       0.00000000       0.00000000 </v>
   <v>       0.12500000       0.00000000       0.00000000 </v>
   <v>       0.16666667       0.00000000       0.00000000 </v>
   <v>       0.20833333       0.00000000       0.00000000 </v>
   <v>       0.25000000       0.00000000       0.00000000 </v>
   <v>       0.29166667       0.00000000       0.00000000 </v>
   <v>       0.33333333       0.00000000       0.00000000 </v>
   <v>       0.37500000       0.00000000       0.00000000 </v>
   <v>       0.41666667       0.00000000       0.00000000 </v>
   <v>       0.45833333       0.00000000       0.00000000 </v>
   <v>       0.50000000       0.00000000       0.00000000 </v>
   <v>       0.00000000       0.02777778       0.00000000 </v>
   <v>       0.04166667       0.02777778       0.00000000 </v>
   <v>       0.08333333       0.02777778       0.00000000 </v>
   <v>       0.12500000       0.02777778       0.00000000 </v>
   <v>       0.16666667       0.02777778       0.00000000 </v>
   <v>       0.20833333       0.02777778       0.00000000 </v>
   <v>       0.25000000       0.02777778       0.00000000 </v>
   <v>       0.29166667       0.02777778       0.00000000 </v>
   <v>       0.33333333       0.02777778       0.00000000 </v>
   <v>       0.37500000       0.02777778       0.00000000 </v>
   <v>       0.41666667       0.02777778       0.00000000 </v>
   <v>       0.45833333       0.02777778       0.00000000 </v>
   <v>       0.50000000       0.02777778       0.00000000 </v>
   <v>       0.00000000       0.05555556       0.00000000 </v>
   <v>       0.04166667       0.05555556       0.00000000 </v>
   <v>       0.08333333       0.05555556       0.00000000 </v>
   <v>       0.12500000       0.05555556       0.00000000 </v>
   <v>       0.16666667       0.05555556       0.00000000 </v>
   <v>       0.20833333       0.05555556       0.00000000 </v>
   <v>       0.25000000       0.05555556       0.00000000 </v>
   <v>       0.29166667       0.05555556       0.00000000 </v>
   <v>       0.33333333       0.05555556       0.00000000 </v>
   <v>       0.37500000       0.05555556       0.00000000 </v>
   <v>       0.41666667       0.05555556       0.00000000 </v>
   <v>       0.45833333       0.05555556       0.00000000 </v>
   <v>       0.50000000       0.05555556       0.00000000 </v>
   <v>       0.00000000       0.08333333       0.00000000 </v>
   <v>       0.04166667       0.08333333       0.00000000 </v>
   <v>       0.08333333       0.08333333       0.00000000 </v>
   <v>       0.12500000       0.08333333       0.00000000 </v>
   <v>       0.16666667       0.08333333       0.00000000 </v>
   <v>       0.20833333       0.08333333       0.00000000 </v>
   <v>       0.25000000       0.08333333       0.00000000 </v>
   <v>       0.29166667       0.08333333       0.00000000 </v>
   <v>       0.33333333       0.08333333       0.00000000 </v>
   <v>       0.37500000       0.08333333       0.00000000 </v>
   <v>       0.41666667       0.08333333       0.00000000 </v>
   <v>       0.45833333       0.08333333       0.00000000 </v>
   <v>       0.50000000       0.08333333       0.00000000 </v>
   <v>       0.00000000       0.11111111       0.00000000 </v>
   <v>       0.04166667       0.11111111       0.00000000 </v>
   <v>       0.08333333       0.11111111       0.00000000 </v>
   <v>       0.12500000       0.11111111       0.00000000 </v>
   <v>       0.16666667       0.11111111       0.00000000 </v>
   <v>       0.20833333       0.11111111       0.00000000 </v>
   <v>       0.25000000       0.11111111       0.00000000 </v>
   <v>       0.29166667       0.11111111       0.00000000 </v>
   <v>       0.33333333       0.11111111       0.00000000 </v>
   <v>       0.37500000       0.11111111       0.00000000 </v>
   <v>       0.41666667       0.11111111       0.00000000 </v>
   <v>       0.45833333       0.11111111       0.00000000 </v>
   <v>       0.50000000       0.11111111       0.00000000 </v>
   <v>       0.00000000       0.13888889       0.00000000 </v>
   <v>       0.04166667       0.13888889       0.00000000 </v>
   <v>       0.08333333       0.13888889       0.00000000 </v>
   <v>       0.12500000       0.13888889       0.00000000 </v>
   <v>       0.16666667       0.13888889       0.00000000 </v>
   <v>       0.20833333       0.13888889       0.00000000 </v>
   <v>       0.25000000       0.13888889       0.00000000 </v>
   <v>       0.29166667       0.13888889       0.00000000 </v>
   <v>       0.33333333       0.13888889       0.00000000 </v>
   <v>       0.37500000       0.13888889       0.00000000 </v>
   <v>       0.41666667       0.13888889       0.00000000 </v>
   <v>       0.45833333       0.13888889       0.00000000 </v>
   <v>       0.50000000       0.13888889       0.00000000 </v>
   <v>       0.00000000       0.16666667       0.00000000 </v>
   <v>       0.04166667       0.16666667       0.00000000 </v>
   <v>       0.08333333       0.16666667       0.00000000 </v>
   <v>       0.12500000       0.16666667       0.00000000 </v>
   <v>       0.16666667       0.16666667       0.00000000 </v>
   <v>       0.20833333       0.16666667       0.00000000 </v>
   <v>       0.25000000       0.16666667       0.00000000 </v>
   <v>       0.29166667       0.16666667       0.00000000 </v>
   <v>       0.33333333       0.16666667       0.00000000 </v>
   <v>       0.37500000       0.16666667       0.00000000 </v>
   <v>       0.41666667       0.16666667       0.00000000 </v>
   <v>       0.45833333       0.16666667       0.00000000 </v>
   <v>       0.50000000       0.16666667       0.00000000 </v>
   <v>       0.00000000       0.19444444       0.00000000 </v>
   <v>       0.04166667       0.19444444       0.00000000 </v>
   <v>       0.08333333       0.19444444       0.00000000 </v>
   <v>       0.12500000       0.19444444       0.00000000 </v>
   <v>       0.16666667       0.19444444       0.00000000 </v>
   <v>       0.20833333       0.19444444       0.00000000 </v>
   <v>       0.25000000       0.19444444       0.00000000 </v>
   <v>       0.29166667       0.19444444       0.00000000 </v>
   <v>       0.33333333       0.19444444       0.00000000 </v>
   <v>       0.37500000       0.19444444       0.00000000 </v>
   <v>       0.41666667       0.19444444       0.00000000 </v>
   <v>       0.45833333       0.19444444       0.00000000 </v>
   <v>       0.50000000       0.19444444       0.00000000 </v>
   <v>       0.00000000       0.22222222       0.00000000 </v>
   <v>       0.04166667       0.22222222       0.00000000 </v>
   <v>       0.08333333       0.22222222       0.00000000 </v>
   <v>       0.12500000       0.22222222       0.00000000 </v>
   <v>       0.16666667       0.22222222       0.00000000 </v>
   <v>       0.20833333       0.22222222       0.00000000 </v>
   <v>       0.25000000       0.22222222       0.00000000 </v>
   <v>       0.29166667       0.22222222       0.00000000 </v>
   <v>       0.33333333       0.22222222       0.00000000 </v>
   <v>       0.37500000       0.22222222       0.00000000 </v>
   <v>       0.41666667       0.22222222       0.00000000 </v>
   <v>       0.45833333       0.22222222       0.00000000 </v>
   <v>       0.50000000       0.22222222       0.00000000 </v>
   <v>       0.00000000       0.25000000       0.00000000 </v>
   <v>       0.04166667       0.25000000       0.00000000 </v>
   <v>       0.08333333       0.25000000       0.00000000 </v>
   <v>       0.12500000       0.25000000       0.00000000 </v>
   <v>       0.16666667       0.25000000       0.00000000 </v>
   <v>       0.20833333       0.25000000       0.00000000 </v>
   <v>       0.25000000       0.25000000       0.00000000 </v>
   <v>       0.29166667       0.25000000       0.00000000 </v>
   <v>       0.33333333       0.25000000       0.00000000 </v>
   <v>       0.37500000       0.25000000       0.00000000 </v>
   <v>       0.41666667       0.25000000       0.00000000 </v>
   <v>       0.45833333       0.25000000       0.00000000 </v>
   <v>       0.50000000       0.25000000       0.00000000 </v>
   <v>       0.00000000       0.27777778       0.00000000 </v>
   <v>       0.04166667       0.27777778       0.00000000 </v>
   <v>       0.08333333       0.27777778       0.00000000 </v>
   <v>       0.12500000       0.27777778       0.00000000 </v>
   <v>       0.16666667       0.27777778       0.00000000 </v>
   <v>       0.20833333       0.27777778       0.00000000 </v>
   <v>       0.25000000       0.27777778       0.00000000 </v>
   <v>       0.29166667       0.27777778       0.00000000 </v>
   <v>       0.33333333       0.27777778       0.00000000 </v>
   <v>       0.37500000       0.27777778       0.00000000 </v>
   <v>       0.41666667       0.27777778       0.00000000 </v>
   <v>       0.45833333       0.27777778       0.00000000 </v>
   <v>       0.50000000       0.27777778       0.00000000 </v>
   <v>       0.00000000       0.30555556       0.00000000 </v>
   <v>       0.04166667       0.30555556       0.00000000 </v>
   <v>       0.08333333       0.30555556       0.00000000 </v>
   <v>       0.12500000       0.30555556       0.00000000 </v>
   <v>       0.16666667       0.30555556       0.00000000 </v>
   <v>       0.20833333       0.30555556       0.00000000 </v>
   <v>       0.25000000       0.30555556       0.00000000 </v>
   <v>       0.29166667       0.30555556       0.00000000 </v>
   <v>       0.33333333       0.30555556       0.00000000 </v>
   <v>       0.37500000       0.30555556       0.00000000 </v>
   <v>       0.41666667       0.30555556       0.00000000 </v>
   <v>       0.45833333       0.30555556       0.00000000 </v>
   <v>       0.50000000       0.30555556       0.00000000 </v>
   <v>       0.00000000       0.33333333       0.00000000 </v>
   <v>       0.04166667       0.33333333       0.00000000 </v>
   <v>       0.08333333       0.33333333       0.00000000 </v>
   <v>       0.12500000       0.33333333       0.00000000 </v>
   <v>       0.16666667       0.33333333       0.00000000 </v>
   <v>       0.20833333       0.33333333       0.00000000 </v>
   <v>       0.25000000       0.33333333       0.00000000 </v>
   <v>       0.29166667       0.33333333       0.00000000 </v>
   <v>       0.33333333       0.33333333       0.00000000 </v>
   <v>       0.37500000       0.33333333       0.00000000 </v>
   <v>       0.41666667       0.33333333       0.00000000 </v>
   <v>       0.45833333       0.33333333       0.00000000 </v>
   <v>       0.50000000       0.33333333       0.00000000 </v>
   <v>       0.00000000       0.36111111       0.00000000 </v>
   <v>       0.04166667       0.36111111       0.00000000 </v>
   <v>       0.08333333       0.36111111       0.00000000 </v>
   <v>       0.12500000       0.36111111       0.00000000 </v>
   <v>       0.16666667       0.36111111       0.00000000 </v>
   <v>       0.20833333       0.36111111       0.00000000 </v>
   <v>       0.25000000       0.36111111       0.00000000 </v>
   <v>       0.29166667       0.36111111       0.00000000 </v>
   <v>       0.33333333       0.36111111       0.00000000 </v>
   <v>       0.37500000       0.36111111       0.00000000 </v>
   <v>       0.41666667       0.36111111       0.00000000 </v>
   <v>       0.45833333       0.36111111       0.00000000 </v>
   <v>       0.50000000       0.36111111       0.00000000 </v>
   <v>       0.00000000       0.38888889       0.00000000 </v>
   <v>       0.04166667       0.38888889       0.00000000 </v>
   <v>       0.08333333       0.38888889       0.00000000 </v>
   <v>       0.12500000       0.38888889       0.00000000 </v>
   <v>       0.16666667       0.38888889       0.00000000 </v>
   <v>       0.20833333       0.38888889       0.00000000 </v>
   <v>       0.25000000       0.38888889       0.00000000 </v>
   <v>       0.29166667       0.38888889       0.00000000 </v>
   <v>       0.33333333       0.38888889       0.00000000 </v>
   <v>       0.37500000       0.38888889       0.00000000 </v>
   <v>       0.41666667       0.38888889       0.00000000 </v>
   <v>       0.45833333       0.38888889       0.00000000 </v>
   <v>       0.50000000       0.38888889       0.00000000 </v>
   <v>       0.00000000       0.41666667       0.00000000 </v>
   <v>       0.04166667       0.41666667       0.00000000 </v>
   <v>       0.08333333       0.41666667       0.00000000 </v>
   <v>       0.12500000       0.41666667       0.00000000 </v>
   <v>       0.16666667       0.41666667       0.00000000 </v>
   <v>       0.20833333       0.41666667       0.00000000 </v>
   <v>       0.25000000       0.41666667       0.00000000 </v>
   <v>       0.29166667       0.41666667       0.00000000 </v>
   <v>       0.33333333       0.41666667       0.00000000 </v>
   <v>       0.37500000       0.41666667       0.00000000 </v>
   <v>       0.41666667       0.41666667       0.00000000 </v>
   <v>       0.45833333       0.41666667       0.00000000 </v>
   <v>       0.50000000       0.41666667       0.00000000 </v>
   <v>       0.00000000       0.44444444       0.00000000 </v>
   <v>       0.04166667       0.44444444       0.00000000 </v>
   <v>       0.08333333       0.44444444       0.00000000 </v>
   <v>       0.12500000       0.44444444       0.00000000 </v>
   <v>       0.16666667       0.44444444       0.00000000 </v>
   <v>       0.20833333       0.44444444       0.00000000 </v>
   <v>       0.25000000       0.44444444       0.00000000 </v>
   <v>       0.29166667       0.44444444       0.00000000 </v>
   <v>       0.33333333       0.44444444       0.00000000 </v>
   <v>       0.37500000       0.44444444       0.00000000 </v>
   <v>       0.41666667       0.44444444       0.00000000 </v>
   <v>       0.45833333       0.44444444       0.00000000 </v>
   <v>       0.50000000       0.44444444       0.00000000 </v>
   <v>       0.00000000       0.47222222       0.00000000 </v>
   <v>       0.04166667       0.47222222       0.00000000 </v>
   <v>       0.08333333       0.47222222       0.00000000 </v>
   <v>       0.12500000       0.47222222       0.00000000 </v>
   <v>       0.16666667       0.47222222       0.00000000 </v>
   <v>       0.20833333       0.47222222       0.00000000 </v>
   <v>       0.25000000       0.47222222       0.00000000 </v>
   <v>       0.29166667       0.47222222       0.00000000 </v>
   <v>       0.33333333       0.47222222       0.00000000 </v>
   <v>       0.37500000       0.47222222       0.00000000 </v>
   <v>       0.41666667       0.47222222       0.00000000 </v>
   <v>       0.45833333       0.47222222       0.00000000 </v>
   <v>       0.50000000       0.47222222       0.00000000 </v>
   <v>       0.00000000       0.50000000       0.00000000 </v>
   <v>       0.04166667       0.50000000       0.00000000 </v>
   <v>       0.08333333       0.50000000       0.00000000 </v>
   <v>       0.12500000       0.50000000       0.00000000 </v>
   <v>       0.16666667       0.50000000       0.00000000 </v>
   <v>       0.20833333       0.50000000       0.00000000 </v>
   <v>       0.25000000       0.50000000       0.00000000 </v>
   <v>       0.29166667       0.50000000       0.00000000 </v>
   <v>       0.33333333       0.50000000       0.00000000 </v>
   <v>       0.37500000       0.50000000       0.00000000 </v>
   <v>       0.41666667       0.50000000       0.00000000 </v>
   <v>       0.45833333       0.50000000       0.00000000 </v>
   <v>       0.50000000       0.50000000       0.00000000 </v>
  </varray>
  <varray name="weights" >
   <v>       0.00115741 </v>
   <v>       0.00231481 </v>
   <v>       0.00231481 </v>
   <v>       0.00231481 </v>
   <v>       0.00231481 </v>
   <v>       0.00231481 </v>
   <v>       0.00231481 </v>
   <v>       0.00231481 </v>
   <v>       0.00231481 </v>
   <v>       0.00231481 </v>
   <v>       0.00231481 </v>
   <v>       0.00231481 </v>
   <v>       0.00115741 </v>
   <v>       0.00231481 </v>
   <v>       0.00462963 </v>
   <v>       0.00462963 </v>
   <v>       0.00462963 </v>
   <v>       0.00462963 </v>
   <v>       0.00462963 </v>
   <v>       0.00462963 </v>
   <v>       0.00462963 </v>
   <v>       0.00462963 </v>
   <v>       0.00462963 </v>
   <v>       0.00462963 </v>
   <v>       0.00462963 </v>
   <v>       0.00231481 </v>
   <v>       0.00231481 </v>
   <v>       0.00462963 </v>
   <v>       0.00462963 </v>
   <v>       0.00462963 </v>
   <v>       0.00462963 </v>
   <v>       0.00462963 </v>
   <v>       0.00462963 </v>
   <v>       0.00462963 </v>
   <v>       0.00462963 </v>
   <v>       0.00462963 </v>
   <v>       0.00462963 </v>
   <v>       0.00462963 </v>
   <v>       0.00231481 </v>
   <v>       0.00231481 </v>
   <v>       0.00462963 </v>
   <v>       0.00462963 </v>
   <v>       0.00462963 </v>
   <v>       0.00462963 </v>
   <v>       0.00462963 </v>
   <v>       0.00462963 </v>
   <v>       0.00462963 </v>
   <v>       0.00462963 </v>
   <v>       0.00462963 </v>
   <v>       0.00462963 </v>
   <v>       0.00462963 </v>
   <v>       0.00231481 </v>
   <v>       0.00231481 </v>
   <v>       0.00462963 </v>
   <v>       0.00462963 </v>
   <v>       0.00462963 </v>
   <v>       0.00462963 </v>
   <v>       0.00462963 </v>
   <v>       0.00462963 </v>
   <v>       0.00462963 </v>
   <v>       0.00462963 </v>
   <v>       0.00462963 </v>
   <v>       0.00462963 </v>
   <v>       0.00462963 </v>
   <v>       0.00231481 </v>
   <v>       0.00231481 </v>
   <v>       0.00462963 </v>
   <v>       0.00462963 </v>
   <v>       0.00462963 </v>
   <v>       0.00462963 </v>
   <v>       0.00462963 </v>
   <v>       0.00462963 </v>
   <v>       0.00462963 </v>
   <v>       0.00462963 </v>
   <v>       0.00462963 </v>
   <v>       0.00462963 </v>
   <v>       0.00462963 </v>
   <v>       0.00231481 </v>
   <v>       0.00231481 </v>
   <v>       0.00462963 </v>
   <v>       0.00462963 </v>
   <v>       0.00462963 </v>
   <v>       0.00462963 </v>
   <v>       0.00462963 </v>
   <v>       0.00462963 </v>
   <v>       0.00462963 </v>
   <v>       0.00462963 </v>
   <v>       0.00462963 </v>
   <v>       0.00462963 </v>
   <v>       0.00462963 </v>
   <v>       0.00231481 </v>
   <v>       0.00231481 </v>
   <v>       0.00462963 </v>
   <v>       0.00462963 </v>
   <v>       0.00462963 </v>
   <v>       0.00462963 </v>
   <v>       0.00462963 </v>
   <v>       0.00462963 </v>
   <v>       0.00462963 </v>
   <v>       0.00462963 </v>
   <v>       0.00462963 </v>
   <v>       0.00462963 </v>
   <v>       0.00462963 </v>
   <v>       0.00231481 </v>
   <v>       0.00231481 </v>
   <v>       0.00462963 </v>
   <v>       0.00462963 </v>
   <v>       0.00462963 </v>
   <v>       0.00462963 </v>
   <v>       0.00462963 </v>
   <v>       0.00462963 </v>
   <v>       0.00462963 </v>
   <v>       0.00462963 </v>
   <v>       0.00462963 </v>
   <v>       0.00462963 </v>
   <v>       0.00462963 </v>
   <v>       0.00231481 </v>
   <v>       0.00231481 </v>
   <v>       0.00462963 </v>
   <v>       0.00462963 </v>
   <v>       0.00462963 </v>
   <v>       0.00462963 </v>
   <v>       0.00462963 </v>
   <v>       0.00462963 </v>
   <v>       0.00462963 </v>
   <v>       0.00462963 </v>
   <v>       0.00462963 </v>
   <v>       0.00462963 </v>
   <v>       0.00462963 </v>
   <v>       0.00231481 </v>
   <v>       0.00231481 </v>
   <v>       0.00462963 </v>
   <v>       0.00462963 </v>
   <v>       0.00462963 </v>
   <v>       0.00462963 </v>
   <v>       0.00462963 </v>
   <v>       0.00462963 </v>
   <v>       0.00462963 </v>
   <v>       0.00462963 </v>
   <v>       0.00462963 </v>
   <v>       0.00462963 </v>
   <v>       0.00462963 </v>
   <v>       0.00231481 </v>
   <v>       0.00231481 </v>
   <v>       0.00462963 </v>
   <v>       0.00462963 </v>
   <v>       0.00462963 </v>
   <v>       0.00462963 </v>
   <v>       0.00462963 </v>
   <v>       0.00462963 </v>
   <v>       0.00462963 </v>
   <v>       0.00462963 </v>
   <v>       0.00462963 </v>
   <v>       0.00462963 </v>
   <v>       0.00462963 </v>
   <v>       0.00231481 </v>
   <v>       0.00231481 </v>
   <v>       0.00462963 </v>
   <v>       0.00462963 </v>
   <v>       0.00462963 </v>
   <v>       0.00462963 </v>
   <v>       0.00462963 </v>
   <v>       0.00462963 </v>
   <v>       0.00462963 </v>
   <v>       0.00462963 </v>
   <v>       0.00462963 </v>
   <v>       0.00462963 </v>
   <v>       0.00462963 </v>
   <v>       0.00231481 </v>
   <v>       0.00231481 </v>
   <v>       0.00462963 </v>
   <v>       0.00462963 </v>
   <v>       0.00462963 </v>
   <v>       0.00462963 </v>
   <v>       0.00462963 </v>
   <v>       0.00462963 </v>
   <v>       0.00462963 </v>
   <v>       0.00462963 </v>
   <v>       0.00462963 </v>
   <v>       0.00462963 </v>
   <v>       0.00462963 </v>
   <v>       0.00231481 </v>
   <v>       0.00231481 </v>
   <v>       0.00462963 </v>
   <v>       0.00462963 </v>
   <v>       0.00462963 </v>
   <v>       0.00462963 </v>
   <v>       0.00462963 </v>
   <v>       0.00462963 </v>
   <v>       0.00462963 </v>
   <v>       0.00462963 </v>
   <v>       0.00462963 </v>
   <v>       0.00462963 </v>
   <v>       0.00462963 </v>
   <v>       0.00231481 </v>
   <v>       0.00231481 </v>
   <v>       0.00462963 </v>
   <v>       0.00462963 </v>
   <v>       0.00462963 </v>
   <v>       0.00462963 </v>
   <v>       0.00462963 </v>
   <v>       0.00462963 </v>
   <v>       0.00462963 </v>
   <v>       0.00462963 </v>
   <v>       0.00462963 </v>
   <v>       0.00462963 </v>
   <v>       0.00462963 </v>
   <v>       0.00231481 </v>
   <v>       0.00231481 </v>
   <v>       0.00462963 </v>
   <v>       0.00462963 </v>
   <v>       0.00462963 </v>
   <v>       0.00462963 </v>
   <v>       0.00462963 </v>
   <v>       0.00462963 </v>
   <v>       0.00462963 </v>
   <v>       0.00462963 </v>
   <v>       0.00462963 </v>
   <v>       0.00462963 </v>
   <v>       0.00462963 </v>
   <v>       0.00231481 </v>
   <v>       0.00231481 </v>
   <v>       0.00462963 </v>
   <v>       0.00462963 </v>
   <v>       0.00462963 </v>
   <v>       0.00462963 </v>
   <v>       0.00462963 </v>
   <v>       0.00462963 </v>
   <v>       0.00462963 </v>
   <v>       0.00462963 </v>
   <v>       0.00462963 </v>
   <v>       0.00462963 </v>
   <v>       0.00462963 </v>
   <v>       0.00231481 </v>
   <v>       0.00115741 </v>
   <v>       0.00231481 </v>
   <v>       0.00231481 </v>
   <v>       0.00231481 </v>
   <v>       0.00231481 </v>
   <v>       0.00231481 </v>
   <v>       0.00231481 </v>
   <v>       0.00231481 </v>
   <v>       0.00231481 </v>
   <v>       0.00231481 </v>
   <v>       0.00231481 </v>
   <v>       0.00231481 </v>
   <v>       0.00115741 </v>
  </varray>
 </kpoints>
 <parameters>
  <separator name="general" >
   <i type="string" name="SYSTEM">gr</i>
   <i type="logical" name="LCOMPAT"> F  </i>
  </separator>
  <separator name="electronic" >
   <i type="string" name="PREC">accura</i>
   <i name="ENMAX">   2000.00000000</i>
   <i name="ENAUG">    644.87300000</i>
   <i name="EDIFF">      0.00000000</i>
   <i type="int" name="IALGO">    68</i>
   <i type="int" name="IWAVPR">    11</i>
   <i type="int" name="NBANDS">    12</i>
   <i name="NELECT">     16.00000000</i>
   <i type="int" name="TURBO">     0</i>
   <i type="int" name="IRESTART">     0</i>
   <i type="int" name="NREBOOT">     0</i>
   <i type="int" name="NMIN">     0</i>
   <i name="EREF">      0.00000000</i>
   <separator name="electronic smearing" >
    <i type="int" name="ISMEAR">     0</i>
    <i name="SIGMA">      0.05000000</i>
    <i name="KSPACING">      0.50000000</i>
    <i type="logical" name="KGAMMA"> T  </i>
   </separator>
   <separator name="electronic projectors" >
    <i type="logical" name="LREAL"> F  </i>
    <v name="ROPT">      0.00000000</v>
    <i type="int" name="LMAXPAW">  -100</i>
    <i type="int" name="LMAXMIX">     2</i>
    <i type="logical" name="NLSPLINE"> F  </i>
   </separator>
   <separator name="electronic startup" >
    <i type="int" name="ISTART">     0</i>
    <i type="int" name="ICHARG">     2</i>
    <i type="int" name="INIWAV">     1</i>
   </separator>
   <separator name="electronic spin" >
    <i type="int" name="ISPIN">     1</i>
    <i type="logical" name="LNONCOLLINEAR"> F  </i>
    <v name="MAGMOM">      1.00000000      1.00000000      1.00000000      1.00000000</v>
    <i name="NUPDOWN">     -1.00000000</i>
    <i type="logical" name="LSORBIT"> F  </i>
    <v name="SAXIS">      0.00000000      0.00000000      1.00000000</v>
    <i type="logical" name="LSPIRAL"> F  </i>
    <v name="QSPIRAL">      0.00000000      0.00000000      0.00000000</v>
    <i type="logical" name="LZEROZ"> F  </i>
   </separator>
   <separator name="electronic exchange-correlation" >
    <i type="logical" name="LASPH"> F  </i>
    <i type="logical" name="LMETAGGA"> F  </i>
   </separator>
   <separator name="electronic convergence" >
    <i type="int" name="NELM">   100</i>
    <i type="int" name="NELMDL">    -3</i>
    <i type="int" name="NELMIN">     5</i>
    <i name="ENINI">   2000.00000000</i>
    <separator name="electronic convergence detail" >
     <i type="logical" name="LDIAG"> T  </i>
     <i type="logical" name="LSUBROT"> F  </i>
     <i name="WEIMIN">      0.00100000</i>
     <i name="EBREAK">      0.00000000</i>
     <i name="DEPER">      0.30000000</i>
     <i type="int" name="NRMM">     4</i>
     <i name="TIME">      0.40000000</i>
    </separator>
   </separator>
   <separator name="electronic mixer" >
    <i name="AMIX">      0.40000000</i>
    <i name="BMIX">      1.00000000</i>
    <i name="AMIN">      0.10000000</i>
    <i name="AMIX_MAG">      1.60000000</i>
    <i name="BMIX_MAG">      1.00000000</i>
    <separator name="electronic mixer details" >
     <i type="int" name="IMIX">     4</i>
     <i type="int" name="MAXMIX">   -45</i>
     <i name="WC">    100.00000000</i>
     <i type="int" name="INIMIX">     1</i>
     <i type="int" name="MIXPRE">     1</i>
     <i type="int" name="MREMOVE">     5</i>
    </separator>
   </separator>
   <separator name="electronic dipolcorrection" >
    <i type="logical" name="LDIPOL"> F  </i>
    <i type="logical" name="LMONO"> F  </i>
    <i type="int" name="IDIPOL">     0</i>
    <i name="EPSILON">      1.00000000</i>
    <v name="DIPOL">   -100.00000000   -100.00000000   -100.00000000</v>
    <i name="EFIELD">      0.00000000</i>
   </separator>
  </separator>
  <separator name="grids" >
   <i type="int" name="NGX">    64</i>
   <i type="int" name="NGY">    40</i>
   <i type="int" name="NGZ">   288</i>
   <i type="int" name="NGXF">   128</i>
   <i type="int" name="NGYF">    80</i>
   <i type="int" name="NGZF">   576</i>
   <i type="logical" name="ADDGRID"> F  </i>
  </separator>
  <separator name="ionic" >
   <i type="int" name="NSW">   400</i>
   <i type="int" name="IBRION">     1</i>
   <i type="int" name="ISIF">     2</i>
   <i name="PSTRESS">      0.00000000</i>
   <i name="EDIFFG">     -0.00000100</i>
   <i type="int" name="NFREE">     0</i>
   <i name="POTIM">      0.50000000</i>
   <i name="SMASS">     -3.00000000</i>
   <i name="SCALEE">      1.00000000</i>
  </separator>
  <separator name="ionic md" >
   <i name="TEBEG">      0.00010000</i>
   <i name="TEEND">      0.00010000</i>
   <i type="int" name="NBLOCK">     1</i>
   <i type="int" name="KBLOCK">   400</i>
   <i type="int" name="NPACO">   256</i>
   <i name="APACO">     16.00000000</i>
  </separator>
  <separator name="symmetry" >
   <i type="int" name="ISYM">     2</i>
   <i name="SYMPREC">      0.00001000</i>
  </separator>
  <separator name="dos" >
   <i type="logical" name="LORBIT"> F  </i>
   <v name="RWIGS">     -1.00000000</v>
   <i type="int" name="NEDOS">   301</i>
   <i name="EMIN">     10.00000000</i>
   <i name="EMAX">    -10.00000000</i>
   <i name="EFERMI">      0.00000000</i>
  </separator>
  <separator name="writing" >
   <i type="int" name="NWRITE">     2</i>
   <i type="logical" name="LWAVE"> F  </i>
   <i type="logical" name="LCHARG"> F  </i>
   <i type="logical" name="LPARD"> F  </i>
   <i type="logical" name="LVTOT"> F  </i>
   <i type="logical" name="LVHAR"> F  </i>
   <i type="logical" name="LELF"> F  </i>
   <i type="logical" name="LOPTICS"> F  </i>
   <v name="STM">      0.00000000      0.00000000      0.00000000      0.00000000      0.00000000      0.00000000      0.00000000</v>
  </separator>
  <separator name="performance" >
   <i type="int" name="NPAR">     4</i>
   <i type="int" name="NSIM">     4</i>
   <i type="int" name="NBLK">    -1</i>
   <i type="logical" name="LPLANE"> T  </i>
   <i type="logical" name="LSCALAPACK"> F  </i>
   <i type="logical" name="LSCAAWARE"> F  </i>
   <i type="logical" name="LSCALU"> F  </i>
   <i type="logical" name="LASYNC"> F  </i>
   <i type="logical" name="LORBITALREAL"> F  </i>
  </separator>
  <separator name="miscellaneous" >
   <i type="int" name="IDIOT">     3</i>
   <i type="logical" name="LMUSIC"> F  </i>
   <v name="POMASS">     12.01100000</v>
   <v name="DARWINR">      0.00000000</v>
   <v name="DARWINV">      1.00000000</v>
   <i type="logical" name="LCORR"> T  </i>
  </separator>
  <i type="logical" name="GGA_COMPAT"> T  </i>
  <i type="logical" name="LBERRY"> F  </i>
  <i type="int" name="ICORELEVEL">     0</i>
  <i type="logical" name="LDAU"> F  </i>
  <i type="int" name="I_CONSTRAINED_M">     0</i>
  <separator name="electronic exchange-correlation" >
   <i type="string" name="GGA">--</i>
   <i type="int" name="VOSKOWN">     0</i>
   <i type="logical" name="LHFCALC"> F  </i>
   <i type="string" name="PRECFOCK"></i>
   <i type="logical" name="LSYMGRAD"> F  </i>
   <i type="logical" name="LHFONE"> F  </i>
   <i type="logical" name="LRHFCALC"> F  </i>
   <i type="logical" name="LTHOMAS"> F  </i>
   <i type="logical" name="LMODELHF"> F  </i>
   <i name="ENCUT4O">     -1.00000000</i>
   <i type="int" name="EXXOEP">     0</i>
   <i type="int" name="FOURORBIT">     0</i>
   <i name="AEXX">      0.00000000</i>
   <i name="HFALPHA">      0.00000000</i>
   <i name="MCALPHA">      0.00000000</i>
   <i name="ALDAX">      1.00000000</i>
   <i name="AGGAX">      1.00000000</i>
   <i name="ALDAC">      1.00000000</i>
   <i name="AGGAC">      1.00000000</i>
   <i type="int" name="NKREDX">     1</i>
   <i type="int" name="NKREDY">     1</i>
   <i type="int" name="NKREDZ">     1</i>
   <i type="logical" name="SHIFTRED"> F  </i>
   <i type="logical" name="ODDONLY"> F  </i>
   <i type="logical" name="EVENONLY"> F  </i>
   <i type="int" name="LMAXFOCK">     0</i>
   <i type="int" name="NMAXFOCKAE">     0</i>
   <i type="logical" name="LFOCKAEDFT"> F  </i>
   <i name="HFSCREEN">      0.00000000</i>
   <i name="HFSCREENC">      0.00000000</i>
   <i type="int" name="NBANDSGWLOW">     0</i>
  </separator>
  <separator name="vdW DFT" >
   <i type="logical" name="LUSE_VDW"> F  </i>
   <i name="Zab_VDW">     -0.84910000</i>
   <i name="PARAM1">      0.12340000</i>
   <i name="PARAM2">      1.00000000</i>
   <i name="PARAM3">      0.00000000</i>
  </separator>
  <separator name="model GW" >
   <i type="int" name="MODEL_GW">     0</i>
   <i name="MODEL_EPS0">     31.62568521</i>
   <i name="MODEL_ALPHA">      1.00000000</i>
  </separator>
  <separator name="linear response parameters" >
   <i type="logical" name="LEPSILON"> F  </i>
   <i type="logical" name="LRPA"> F  </i>
   <i type="logical" name="LNABLA"> F  </i>
   <i type="logical" name="LVEL"> F  </i>
   <i type="int" name="KINTER">     0</i>
   <i name="CSHIFT">      0.10000000</i>
   <i name="OMEGAMAX">     -1.00000000</i>
   <i name="DEG_THRESHOLD">      0.00200000</i>
  </separator>
  <separator name="orbital magnetization" >
   <i type="logical" name="NUCIND"> F  </i>
   <v name="MAGPOS">      0.00000000      0.00000000      0.00000000</v>
   <i type="logical" name="LNICSALL"> T  </i>
   <i type="logical" name="ORBITALMAG"> F  </i>
   <i type="logical" name="LMAGBLOCH"> F  </i>
   <i type="logical" name="LCHIMAG"> F  </i>
   <i type="logical" name="LGAUGE"> T  </i>
   <i type="int" name="MAGATOM">     0</i>
   <v name="MAGDIPOL">      0.00000000      0.00000000      0.00000000</v>
   <v name="AVECCONST">      0.00000000      0.00000000      0.00000000</v>
  </separator>
  <separator name="response functions" >
   <i type="logical" name="LADDER"> F  </i>
   <i type="logical" name="LFXC"> F  </i>
   <i type="logical" name="LHARTREE"> T  </i>
   <i type="int" name="IBSE">     0</i>
   <i type="logical" name="LTCTE"> F  </i>
   <i type="logical" name="LTETE"> F  </i>
   <i type="logical" name="LTRIPLET"> F  </i>
   <i type="logical" name="LFXCEPS"> F  </i>
   <i type="logical" name="LFXHEG"> F  </i>
   <i type="logical" name="L2ORDER"> F  </i>
   <i type="logical" name="LUSEW"> F  </i>
   <i name="ENCUTGW">     -2.00000000</i>
   <i name="ENCUTGWSOFT">     -2.00000000</i>
   <i name="ENCUTLF">     -1.00000000</i>
   <i type="int" name="LMAXMP2">    -1</i>
   <i name="SCISSOR">      0.00000000</i>
   <i type="int" name="NOMEGA">     0</i>
   <i type="int" name="NOMEGAR">     0</i>
   <i type="int" name="NBANDSGW">    -1</i>
   <i type="int" name="NBANDSO">    -1</i>
   <i type="int" name="NBANDSV">    -1</i>
   <i type="int" name="NELM">   100</i>
   <i type="int" name="DIM">     3</i>
   <i type="int" name="ANTIRES">     0</i>
   <i name="OMEGAMAX">    -30.00000000</i>
   <i name="OMEGAMIN">    -30.00000000</i>
   <i name="OMEGATL">   -200.00000000</i>
   <i type="int" name="OMEGAGRID">     0</i>
   <i name="CSHIFT">     -0.10000000</i>
   <i type="logical" name="SELFENERGY"> F  </i>
   <i type="logical" name="LSPECTRAL"> F  </i>
   <i type="logical" name="ODDONLYGW"> F  </i>
   <i type="logical" name="EVENONLYGW"> F  </i>
   <i type="int" name="NKREDLFX">     1</i>
   <i type="int" name="NKREDLFY">     1</i>
   <i type="int" name="NKREDLFZ">     1</i>
   <i type="int" name="MAXMEM">  1800</i>
   <i type="int" name="TELESCOPE">     0</i>
   <i type="int" name="TAUPAR">     1</i>
  </separator>
  <separator name="External order field" >
   <i name="OFIELD_KAPPA">      0.00000000</i>
   <v name="OFIELD_K">      0.00000000      0.00000000      0.00000000</v>
   <i name="OFIELD_Q6_NEAR">      0.00000000</i>
   <i name="OFIELD_Q6_FAR">      0.00000000</i>
   <i name="OFIELD_A">      0.00000000</i>
  </separator>
 </parameters>
 <atominfo>
  <atoms>       4 </atoms>
  <types>       1 </types>
  <array name="atoms" >
   <dimension dim="1">ion</dimension>
   <field type="string">element</field>
   <field type="int">atomtype</field>
   <set>
    <rc><c>C </c><c>   1</c></rc>
    <rc><c>C </c><c>   1</c></rc>
    <rc><c>C </c><c>   1</c></rc>
    <rc><c>C </c><c>   1</c></rc>
   </set>
  </array>
  <array name="atomtypes" >
   <dimension dim="1">type</dimension>
   <field type="int">atomspertype</field>
   <field type="string">element</field>
   <field>mass</field>
   <field>valence</field>
   <field type="string">pseudopotential</field>
   <set>
    <rc><c>   4</c><c>C </c><c>     12.01100000</c><c>      4.00000000</c><c> PAW_PBE C 08Apr2002                    </c></rc>
   </set>
  </array>
 </atominfo>
 <structure name="initialpos" >
  <crystal>
   <varray name="basis" >
    <v>       4.25835300       0.00000000       0.00000000 </v>
    <v>       0.00000000       2.51738794       0.00000000 </v>
    <v>       0.00000000       0.00000000      19.66784951 </v>
   </varray>
   <i name="volume">    210.83790140 </i>
   <varray name="rec_basis" >
    <v>       0.23483257       0.00000000       0.00000000 </v>
    <v>       0.00000000       0.39723715       0.00000000 </v>
    <v>       0.00000000       0.00000000       0.05084440 </v>
   </varray>
  </crystal>
  <varray name="positions" >
   <v>       0.00051919       0.00000000       0.00000000 </v>
   <v>       0.16614747       0.50000000       0.00000000 </v>
   <v>       0.50051919       0.50000000       0.00000000 </v>
   <v>       0.66614747       0.00000000       0.00000000 </v>
  </varray>
 </structure>
 <calculation>
  <scstep>
   <time name="dav">  317.38  318.35</time>
   <time name="total">  320.15  321.32</time>
   <energy>
    <i name="alphaZ">      6.18334092 </i>
    <i name="ewald">   2475.20501584 </i>
    <i name="hartreedc">  -2903.92888084 </i>
    <i name="XCdc">     54.87027227 </i>
    <i name="pawpsdc">    151.32577238 </i>
    <i name="pawaedc">   -155.92769107 </i>
    <i name="eentropy">     -0.00102908 </i>
    <i name="bandstr">    -28.24837716 </i>
    <i name="atom">    588.62352690 </i>
    <i name="e_fr_energy">    188.10195017 </i>
    <i name="e_wo_entrp">    188.10297925 </i>
    <i name="e_0_energy">    188.10246471 </i>
   </energy>
  </scstep>
  <scstep>
   <time name="dav">  486.88  487.50</time>
   <time name="total">  486.88  487.51</time>
   <energy>
    <i name="e_fr_energy">     -9.41889931 </i>
    <i name="e_wo_entrp">     -9.41874609 </i>
    <i name="e_0_energy">     -9.41882270 </i>
   </energy>
  </scstep>
  <scstep>
   <time name="dav">  369.59  370.38</time>
   <time name="total">  402.97  403.79</time>
   <energy>
    <i name="e_fr_energy">    -38.17462265 </i>
    <i name="e_wo_entrp">    -38.17462257 </i>
    <i name="e_0_energy">    -38.17462261 </i>
   </energy>
  </scstep>
  <scstep>
   <time name="diag">   87.13   87.16</time>
   <time name="diis">  368.29  368.92</time>
   <time name="orth">    3.09    3.09</time>
   <time name="total">  494.63  495.45</time>
   <energy>
    <i name="e_fr_energy">    -37.60605271 </i>
    <i name="e_wo_entrp">    -37.60605251 </i>
    <i name="e_0_energy">    -37.60605261 </i>
   </energy>
  </scstep>
  <scstep>
   <time name="diag">   87.12   87.15</time>
   <time name="diis">  366.06  367.10</time>
   <time name="orth">    3.09    3.10</time>
   <time name="total">  492.28  493.42</time>
   <energy>
    <i name="e_fr_energy">    -36.88991511 </i>
    <i name="e_wo_entrp">    -36.88991472 </i>
    <i name="e_0_energy">    -36.88991491 </i>
   </energy>
  </scstep>
  <scstep>
   <time name="diag">   87.03   87.23</time>
   <time name="diis">  405.09  407.40</time>
   <time name="orth">    3.08    3.10</time>
   <time name="total">  530.89  533.86</time>
   <energy>
    <i name="e_fr_energy">    -36.89207589 </i>
    <i name="e_wo_entrp">    -36.89207557 </i>
    <i name="e_0_energy">    -36.89207573 </i>
   </energy>
  </scstep>
  <scstep>
   <time name="diag">   86.25   87.22</time>
   <time name="diis">  363.87  367.00</time>
   <time name="orth">    3.08    3.08</time>
   <time name="total">  488.84  493.30</time>
   <energy>
    <i name="e_fr_energy">    -36.88305188 </i>
    <i name="e_wo_entrp">    -36.88305161 </i>
    <i name="e_0_energy">    -36.88305174 </i>
   </energy>
  </scstep>
  <scstep>
   <time name="diag">   86.67   87.13</time>
   <time name="diis">  362.94  365.59</time>
   <time name="orth">    3.09    3.12</time>
   <time name="total">  488.36  492.62</time>
   <energy>
    <i name="e_fr_energy">    -36.87802397 </i>
    <i name="e_wo_entrp">    -36.87802369 </i>
    <i name="e_0_energy">    -36.87802383 </i>
   </energy>
  </scstep>
  <scstep>
   <time name="diag">   87.12   87.13</time>
   <time name="diis">  351.74  351.83</time>
   <time name="orth">    3.12    3.14</time>
   <time name="total">  477.84  478.20</time>
   <energy>
    <i name="e_fr_energy">    -36.87787203 </i>
    <i name="e_wo_entrp">    -36.87787171 </i>
    <i name="e_0_energy">    -36.87787187 </i>
   </energy>
  </scstep>
  <scstep>
   <time name="diag">   86.74   87.08</time>
   <time name="diis">  352.34  352.41</time>
   <time name="orth">    3.08    3.08</time>
   <time name="total">  478.26  478.74</time>
   <energy>
    <i name="e_fr_energy">    -36.87775544 </i>
    <i name="e_wo_entrp">    -36.87775514 </i>
    <i name="e_0_energy">    -36.87775529 </i>
   </energy>
  </scstep>
  <scstep>
   <time name="diag">   87.12   87.15</time>
   <time name="diis">  354.13  354.19</time>
   <time name="orth">    3.08    3.08</time>
   <time name="total">  480.48  480.60</time>
   <energy>
    <i name="e_fr_energy">    -36.88010905 </i>
    <i name="e_wo_entrp">    -36.88010876 </i>
    <i name="e_0_energy">    -36.88010890 </i>
   </energy>
  </scstep>
  <scstep>
   <time name="diag">   87.14   87.16</time>
   <time name="diis">  354.36  354.45</time>
   <time name="orth">    3.11    3.12</time>
   <time name="total">  480.86  481.10</time>
   <energy>
    <i name="e_fr_energy">    -36.88058524 </i>
    <i name="e_wo_entrp">    -36.88058494 </i>
    <i name="e_0_energy">    -36.88058509 </i>
   </energy>
  </scstep>
  <scstep>
   <time name="diag">   87.06   87.08</time>
   <time name="diis">  361.05  361.27</time>
   <time name="orth">    3.08    3.08</time>
   <time name="total">  487.09  487.40</time>
   <energy>
    <i name="e_fr_energy">    -36.88083965 </i>
    <i name="e_wo_entrp">    -36.88083935 </i>
    <i name="e_0_energy">    -36.88083950 </i>
   </energy>
  </scstep>
  <scstep>
   <time name="diag">   87.13   87.16</time>
   <time name="diis">  356.59  356.72</time>
   <time name="orth">    3.10    3.10</time>
   <time name="total">  483.00  483.24</time>
   <energy>
    <i name="e_fr_energy">    -36.88092138 </i>
    <i name="e_wo_entrp">    -36.88092108 </i>
    <i name="e_0_energy">    -36.88092123 </i>
   </energy>
  </scstep>
  <scstep>
   <time name="diag">   87.09   87.11</time>
   <time name="diis">  357.88  358.15</time>
   <time name="orth">    3.09    3.10</time>
   <time name="total">  484.02  485.31</time>
   <energy>
    <i name="e_fr_energy">    -36.88093242 </i>
    <i name="e_wo_entrp">    -36.88093212 </i>
    <i name="e_0_energy">    -36.88093227 </i>
   </energy>
  </scstep>
  <scstep>
   <time name="diag">   86.72   87.14</time>
   <time name="diis">  351.82  352.04</time>
   <time name="orth">    3.10    3.10</time>
   <time name="total">  477.82  478.50</time>
   <energy>
    <i name="e_fr_energy">    -36.88094521 </i>
    <i name="e_wo_entrp">    -36.88094491 </i>
    <i name="e_0_energy">    -36.88094506 </i>
   </energy>
  </scstep>
  <scstep>
   <time name="diag">   87.14   87.17</time>
   <time name="diis">  367.17  367.36</time>
   <time name="orth">    3.08    3.08</time>
   <time name="total">  493.32  493.60</time>
   <energy>
    <i name="e_fr_energy">    -36.88095096 </i>
    <i name="e_wo_entrp">    -36.88095066 </i>
    <i name="e_0_energy">    -36.88095081 </i>
   </energy>
  </scstep>
  <scstep>
   <time name="diag">   87.10   87.12</time>
   <time name="diis">  350.63  350.72</time>
   <time name="orth">    3.10    3.10</time>
   <time name="total">  476.52  476.66</time>
   <energy>
    <i name="e_fr_energy">    -36.88095203 </i>
    <i name="e_wo_entrp">    -36.88095173 </i>
    <i name="e_0_energy">    -36.88095188 </i>
   </energy>
  </scstep>
  <scstep>
   <time name="diag">   87.11   87.15</time>
   <time name="diis">  358.45  359.12</time>
   <time name="orth">    3.09    3.10</time>
   <time name="total">  484.69  485.62</time>
   <energy>
    <i name="e_fr_energy">    -36.88095280 </i>
    <i name="e_wo_entrp">    -36.88095250 </i>
    <i name="e_0_energy">    -36.88095265 </i>
   </energy>
  </scstep>
  <scstep>
   <time name="diag">   87.07   87.11</time>
   <time name="diis">  274.89  275.06</time>
   <time name="orth">    3.09    3.10</time>
   <time name="total">  401.13  401.44</time>
   <energy>
    <i name="e_fr_energy">    -36.88095285 </i>
    <i name="e_wo_entrp">    -36.88095255 </i>
    <i name="e_0_energy">    -36.88095270 </i>
   </energy>
  </scstep>
  <scstep>
   <time name="diag">   87.14   87.16</time>
   <time name="diis">  268.29  268.35</time>
   <time name="orth">    3.10    3.10</time>
   <time name="total">  394.60  395.10</time>
   <energy>
    <i name="e_fr_energy">    -36.88095287 </i>
    <i name="e_wo_entrp">    -36.88095257 </i>
    <i name="e_0_energy">    -36.88095272 </i>
   </energy>
  </scstep>
  <scstep>
   <time name="diag">   87.10   87.12</time>
   <time name="diis">  243.58  243.66</time>
   <time name="orth">    3.10    3.10</time>
   <time name="total">  370.12  370.26</time>
   <energy>
    <i name="e_fr_energy">    -36.88095287 </i>
    <i name="e_wo_entrp">    -36.88095257 </i>
    <i name="e_0_energy">    -36.88095272 </i>
   </energy>
  </scstep>
  <scstep>
   <time name="diag">   87.08   87.09</time>
   <time name="diis">  233.42  233.47</time>
   <time name="orth">    3.10    3.10</time>
   <time name="total">  359.74  359.86</time>
   <energy>
    <i name="e_fr_energy">    -36.88095287 </i>
    <i name="e_wo_entrp">    -36.88095257 </i>
    <i name="e_0_energy">    -36.88095272 </i>
   </energy>
  </scstep>
  <scstep>
   <time name="diag">   87.07   87.10</time>
   <time name="diis">  222.32  222.43</time>
   <time name="orth">    3.10    3.10</time>
   <time name="total">  348.73  348.91</time>
   <energy>
    <i name="e_fr_energy">    -36.88095287 </i>
    <i name="e_wo_entrp">    -36.88095257 </i>
    <i name="e_0_energy">    -36.88095272 </i>
   </energy>
  </scstep>
  <scstep>
   <time name="diag">   86.63   87.04</time>
   <time name="diis">  212.27  212.62</time>
   <time name="orth">    3.10    3.10</time>
   <time name="total">  338.10  338.98</time>
   <energy>
    <i name="e_fr_energy">    -36.88095287 </i>
    <i name="e_wo_entrp">    -36.88095257 </i>
    <i name="e_0_energy">    -36.88095272 </i>
   </energy>
  </scstep>
  <scstep>
   <time name="diag">   87.01   87.03</time>
   <time name="diis">  204.67  204.71</time>
   <time name="orth">    3.09    3.10</time>
   <time name="total">  297.48  297.75</time>
   <energy>
    <i name="alphaZ">      6.18334092 </i>
    <i name="ewald">   2475.20501584 </i>
    <i name="hartreedc">  -2969.42717400 </i>
    <i name="XCdc">     57.21386938 </i>
    <i name="pawpsdc">    270.36344857 </i>
    <i name="pawaedc">   -275.48188198 </i>
    <i name="eentropy">     -0.00000030 </i>
    <i name="bandstr">   -189.56109820 </i>
    <i name="atom">    588.62352690 </i>
    <i name="e_fr_energy">    -36.88095287 </i>
    <i name="e_wo_entrp">    -36.88095257 </i>
    <i name="e_0_energy">    -36.88095272 </i>
   </energy>
  </scstep>
  <structure>
   <crystal>
    <varray name="basis" >
     <v>       4.25835300       0.00000000       0.00000000 </v>
     <v>       0.00000000       2.51738794       0.00000000 </v>
     <v>       0.00000000       0.00000000      19.66784951 </v>
    </varray>
    <i name="volume">    210.83790140 </i>
    <varray name="rec_basis" >
     <v>       0.23483257       0.00000000       0.00000000 </v>
     <v>       0.00000000       0.39723715       0.00000000 </v>
     <v>       0.00000000       0.00000000       0.05084440 </v>
    </varray>
   </crystal>
   <varray name="positions" >
    <v>       0.00051919       0.00000000       0.00000000 </v>
    <v>       0.16614747       0.50000000       0.00000000 </v>
    <v>       0.50051919       0.50000000       0.00000000 </v>
    <v>       0.66614747       0.00000000       0.00000000 </v>
   </varray>
  </structure>
  <varray name="forces" >
   <v>       0.00276588      -0.00000000       0.00000000 </v>
   <v>      -0.00276588      -0.00000000      -0.00000000 </v>
   <v>       0.00276588       0.00000000       0.00000000 </v>
   <v>      -0.00276588      -0.00000000      -0.00000000 </v>
  </varray>
  <varray name="stress" >
   <v>       0.01685259       0.00000000       0.00000000 </v>
   <v>       0.00000000     -33.46398512       0.00000000 </v>
   <v>       0.00000000       0.00000000      -0.01019118 </v>
  </varray>
  <energy>
   <i name="e_fr_energy">    -36.88095287 </i>
   <i name="e_wo_entrp">    -36.88095272 </i>
   <i name="e_0_energy">     -0.00000030 </i>
  </energy>
  <time name="totalsc">11625.2511649.32</time>
 </calculation>
 <calculation>
  <scstep>
   <time name="dav">  335.57  335.87</time>
   <time name="total">  372.13  372.44</time>
   <energy>
    <i name="alphaZ">      6.18334092 </i>
    <i name="ewald">   2475.20271369 </i>
    <i name="hartreedc">  -2969.42617035 </i>
    <i name="XCdc">     57.21380341 </i>
    <i name="pawpsdc">    270.36344763 </i>
    <i name="pawaedc">   -275.48188103 </i>
    <i name="eentropy">     -0.00000036 </i>
    <i name="bandstr">   -189.55973140 </i>
    <i name="atom">    588.62352690 </i>
    <i name="e_fr_energy">    -36.88095058 </i>
    <i name="e_wo_entrp">    -36.88095022 </i>
    <i name="e_0_energy">    -36.88095040 </i>
   </energy>
  </scstep>
  <scstep>
   <time name="diag">   87.02   87.04</time>
   <time name="diis">  352.67  352.74</time>
   <time name="orth">    3.11    3.11</time>
   <time name="total">  479.27  479.40</time>
   <energy>
    <i name="e_fr_energy">    -36.88095072 </i>
    <i name="e_wo_entrp">    -36.88095036 </i>
    <i name="e_0_energy">    -36.88095054 </i>
   </energy>
  </scstep>
  <scstep>
   <time name="diag">   87.05   87.09</time>
   <time name="diis">  356.39  356.47</time>
   <time name="orth">    3.08    3.08</time>
   <time name="total">  482.94  483.31</time>
   <energy>
    <i name="e_fr_energy">    -36.88095061 </i>
    <i name="e_wo_entrp">    -36.88095026 </i>
    <i name="e_0_energy">    -36.88095043 </i>
   </energy>
  </scstep>
  <scstep>
   <time name="diag">   87.07   87.09</time>
   <time name="diis">  364.96  366.20</time>
   <time name="orth">    3.09    3.10</time>
   <time name="total">  491.45  492.94</time>
   <energy>
    <i name="e_fr_energy">    -36.88095060 </i>
    <i name="e_wo_entrp">    -36.88095025 </i>
    <i name="e_0_energy">    -36.88095043 </i>
   </energy>
  </scstep>
  <scstep>
   <time name="diag">   86.66   87.03</time>
   <time name="diis">  367.45  368.64</time>
   <time name="orth">    3.08    3.08</time>
   <time name="total">  493.63  495.48</time>
   <energy>
    <i name="e_fr_energy">    -36.88095060 </i>
    <i name="e_wo_entrp">    -36.88095024 </i>
    <i name="e_0_energy">    -36.88095042 </i>
   </energy>
  </scstep>
  <scstep>
   <time name="diag">   86.99   87.06</time>
   <time name="diis">  294.97  295.40</time>
   <time name="orth">    3.10    3.10</time>
   <time name="total">  421.51  422.51</time>
   <energy>
    <i name="e_fr_energy">    -36.88095060 </i>
    <i name="e_wo_entrp">    -36.88095025 </i>
    <i name="e_0_energy">    -36.88095042 </i>
   </energy>
  </scstep>
  <scstep>
   <time name="diag">   87.00   87.07</time>
   <time name="diis">  237.58  237.79</time>
   <time name="orth">    3.11    3.11</time>
   <time name="total">  364.12  364.47</time>
   <energy>
    <i name="e_fr_energy">    -36.88095060 </i>
    <i name="e_wo_entrp">    -36.88095025 </i>
    <i name="e_0_energy">    -36.88095042 </i>
   </energy>
  </scstep>
  <scstep>
   <time name="diag">   87.06   87.12</time>
   <time name="diis">  228.95  229.71</time>
   <time name="orth">    3.08    3.10</time>
   <time name="total">  321.80  322.67</time>
   <energy>
    <i name="alphaZ">      6.18334092 </i>
    <i name="ewald">   2475.20271369 </i>
    <i name="hartreedc">  -2969.42523929 </i>
    <i name="XCdc">     57.21376424 </i>
    <i name="pawpsdc">    270.35946268 </i>
    <i name="pawaedc">   -275.47787868 </i>
    <i name="eentropy">     -0.00000036 </i>
    <i name="bandstr">   -189.56064071 </i>
    <i name="atom">    588.62352690 </i>
    <i name="e_fr_energy">    -36.88095060 </i>
    <i name="e_wo_entrp">    -36.88095025 </i>
    <i name="e_0_energy">    -36.88095042 </i>
   </energy>
  </scstep>
  <structure>
   <crystal>
    <varray name="basis" >
     <v>       4.25835300       0.00000000       0.00000000 </v>
     <v>       0.00000000       2.51738794       0.00000000 </v>
     <v>       0.00000000       0.00000000      19.66784951 </v>
    </varray>
    <i name="volume">    210.83790140 </i>
    <varray name="rec_basis" >
     <v>       0.23483257       0.00000000       0.00000000 </v>
     <v>       0.00000000       0.39723715       0.00000000 </v>
     <v>       0.00000000       0.00000000       0.05084440 </v>
    </varray>
   </crystal>
   <varray name="positions" >
    <v>       0.00055053      -0.00000000       0.00000000 </v>
    <v>       0.16611614       0.50000000      -0.00000000 </v>
    <v>       0.50055053       0.50000000       0.00000000 </v>
    <v>       0.66611614      -0.00000000      -0.00000000 </v>
   </varray>
  </structure>
  <varray name="forces" >
   <v>      -0.01115786       0.00000000       0.00000000 </v>
   <v>       0.01115786      -0.00000000      -0.00000000 </v>
   <v>      -0.01115786      -0.00000000       0.00000000 </v>
   <v>       0.01115786       0.00000000      -0.00000000 </v>
  </varray>
  <varray name="stress" >
   <v>      -0.03691084       0.00000000       0.00000000 </v>
   <v>       0.00000000     -33.42812449       0.00000000 </v>
   <v>       0.00000000       0.00000000      -0.01022936 </v>
  </varray>
  <energy>
   <i name="e_fr_energy">    -36.88095060 </i>
   <i name="e_wo_entrp">    -36.88095042 </i>
   <i name="e_0_energy">     -0.00000036 </i>
  </energy>
  <time name="totalsc"> 3534.51 3541.54</time>
 </calculation>
 <calculation>
  <scstep>
   <time name="dav">  344.71  345.10</time>
   <time name="total">  381.30  381.71</time>
   <energy>
    <i name="alphaZ">      6.18334092 </i>
    <i name="ewald">   2475.20455656 </i>
    <i name="hartreedc">  -2969.42602683 </i>
    <i name="XCdc">     57.21381701 </i>
    <i name="pawpsdc">    270.35947273 </i>
    <i name="pawaedc">   -275.47788886 </i>
    <i name="eentropy">     -0.00000031 </i>
    <i name="bandstr">   -189.56175109 </i>
    <i name="atom">    588.62352690 </i>
    <i name="e_fr_energy">    -36.88095297 </i>
    <i name="e_wo_entrp">    -36.88095266 </i>
    <i name="e_0_energy">    -36.88095282 </i>
   </energy>
  </scstep>
  <scstep>
   <time name="diag">   87.05   87.07</time>
   <time name="diis">  354.40  354.47</time>
   <time name="orth">    3.09    3.09</time>
   <time name="total">  481.06  481.17</time>
   <energy>
    <i name="e_fr_energy">    -36.88095306 </i>
    <i name="e_wo_entrp">    -36.88095275 </i>
    <i name="e_0_energy">    -36.88095290 </i>
   </energy>
  </scstep>
  <scstep>
   <time name="diag">   87.08   87.12</time>
   <time name="diis">  358.47  358.55</time>
   <time name="orth">    3.08    3.08</time>
   <time name="total">  485.11  485.61</time>
   <energy>
    <i name="e_fr_energy">    -36.88095301 </i>
    <i name="e_wo_entrp">    -36.88095270 </i>
    <i name="e_0_energy">    -36.88095286 </i>
   </energy>
  </scstep>
  <scstep>
   <time name="diag">   87.12   87.14</time>
   <time name="diis">  367.84  368.09</time>
   <time name="orth">    3.08    3.08</time>
   <time name="total">  494.53  494.99</time>
   <energy>
    <i name="e_fr_energy">    -36.88095301 </i>
    <i name="e_wo_entrp">    -36.88095270 </i>
    <i name="e_0_energy">    -36.88095285 </i>
   </energy>
  </scstep>
  <scstep>
   <time name="diag">   87.06   87.08</time>
   <time name="diis">  355.44  356.56</time>
   <time name="orth">    3.10    3.10</time>
   <time name="total">  482.09  483.29</time>
   <energy>
    <i name="e_fr_energy">    -36.88095301 </i>
    <i name="e_wo_entrp">    -36.88095270 </i>
    <i name="e_0_energy">    -36.88095285 </i>
   </energy>
  </scstep>
  <scstep>
   <time name="diag">   87.01   87.03</time>
   <time name="diis">  256.54  256.59</time>
   <time name="orth">    3.10    3.10</time>
   <time name="total">  383.10  383.24</time>
   <energy>
    <i name="e_fr_energy">    -36.88095301 </i>
    <i name="e_wo_entrp">    -36.88095270 </i>
    <i name="e_0_energy">    -36.88095285 </i>
   </energy>
  </scstep>
  <scstep>
   <time name="diag">   87.06   87.07</time>
   <time name="diis">  236.92  236.97</time>
   <time name="orth">    3.08    3.08</time>
   <time name="total">  363.52  363.65</time>
   <energy>
    <i name="e_fr_energy">    -36.88095301 </i>
    <i name="e_wo_entrp">    -36.88095270 </i>
    <i name="e_0_energy">    -36.88095285 </i>
   </energy>
  </scstep>
  <scstep>
   <time name="diag">   87.00   87.03</time>
   <time name="diis">  228.31  228.45</time>
   <time name="orth">    3.08    3.08</time>
   <time name="total">  354.72  355.07</time>
   <energy>
    <i name="e_fr_energy">    -36.88095301 </i>
    <i name="e_wo_entrp">    -36.88095270 </i>
    <i name="e_0_energy">    -36.88095285 </i>
   </energy>
  </scstep>
  <scstep>
   <time name="diag">   86.59   87.01</time>
   <time name="diis">  222.48  222.81</time>
   <time name="orth">    3.08    3.08</time>
   <time name="total">  314.79  316.13</time>
   <energy>
    <i name="alphaZ">      6.18334092 </i>
    <i name="ewald">   2475.20455656 </i>
    <i name="hartreedc">  -2969.42676349 </i>
    <i name="XCdc">     57.21384834 </i>
    <i name="pawpsdc">    270.36265370 </i>
    <i name="pawaedc">   -275.48108373 </i>
    <i name="eentropy">     -0.00000031 </i>
    <i name="bandstr">   -189.56103190 </i>
    <i name="atom">    588.62352690 </i>
    <i name="e_fr_energy">    -36.88095301 </i>
    <i name="e_wo_entrp">    -36.88095270 </i>
    <i name="e_0_energy">    -36.88095285 </i>
   </energy>
  </scstep>
  <structure>
   <crystal>
    <varray name="basis" >
     <v>       4.25835300       0.00000000       0.00000000 </v>
     <v>       0.00000000       2.51738794       0.00000000 </v>
     <v>       0.00000000       0.00000000      19.66784951 </v>
    </varray>
    <i name="volume">    210.83790140 </i>
    <varray name="rec_basis" >
     <v>       0.23483257       0.00000000       0.00000000 </v>
     <v>       0.00000000       0.39723715       0.00000000 </v>
     <v>       0.00000000       0.00000000       0.05084440 </v>
    </varray>
   </crystal>
   <varray name="positions" >
    <v>       0.00052542      -0.00000000       0.00000000 </v>
    <v>       0.16614125       0.50000000      -0.00000000 </v>
    <v>       0.50052542       0.50000000       0.00000000 </v>
    <v>       0.66614125      -0.00000000      -0.00000000 </v>
   </varray>
  </structure>
  <varray name="forces" >
   <v>      -0.00000070       0.00000000       0.00000000 </v>
   <v>       0.00000070       0.00000000       0.00000000 </v>
   <v>      -0.00000070      -0.00000000       0.00000000 </v>
   <v>       0.00000070       0.00000000       0.00000000 </v>
  </varray>
  <varray name="stress" >
   <v>       0.00614179       0.00000000       0.00000000 </v>
   <v>       0.00000000     -33.45683381       0.00000000 </v>
   <v>       0.00000000       0.00000000      -0.01014642 </v>
  </varray>
  <energy>
   <i name="e_fr_energy">    -36.88095301 </i>
   <i name="e_wo_entrp">    -36.88095285 </i>
   <i name="e_0_energy">     -0.00000031 </i>
  </energy>
  <time name="totalsc"> 3840.51 3845.33</time>
  <eigenvalues>
   <array>
    <dimension dim="1">band</dimension>
    <dimension dim="2">kpoint</dimension>
    <dimension dim="3">spin</dimension>
    <field>eigene</field>
    <field>occ</field>
    <set>
     <set comment="spin 1">
      <set comment="kpoint 1">
       <r>  -22.1138    1.0000 </r>
       <r>  -16.7633    1.0000 </r>
       <r>  -15.8840    1.0000 </r>
       <r>  -10.2509    1.0000 </r>
       <r>   -9.4195    1.0000 </r>
       <r>   -5.9574    1.0000 </r>
       <r>   -5.7470    1.0000 </r>
       <r>   -4.9431    1.0000 </r>
       <r>   -1.1279    0.0000 </r>
       <r>    0.5406    0.0000 </r>
       <r>    1.3389    0.0000 </r>
       <r>    1.7294    0.0000 </r>
      </set>
      <set comment="kpoint 2">
       <r>  -22.1034    1.0000 </r>
       <r>  -16.9530    1.0000 </r>
       <r>  -15.6792    1.0000 </r>
       <r>  -10.2386    1.0000 </r>
       <r>   -9.4091    1.0000 </r>
       <r>   -5.9809    1.0000 </r>
       <r>   -5.7876    1.0000 </r>
       <r>   -5.0125    1.0000 </r>
       <r>   -1.0434    0.0000 </r>
       <r>    0.5546    0.0000 </r>
       <r>    1.3531    0.0000 </r>
       <r>    1.7438    0.0000 </r>
      </set>
      <set comment="kpoint 3">
       <r>  -22.0724    1.0000 </r>
       <r>  -17.3141    1.0000 </r>
       <r>  -15.2730    1.0000 </r>
       <r>  -10.2017    1.0000 </r>
       <r>   -9.3781    1.0000 </r>
       <r>   -6.0501    1.0000 </r>
       <r>   -5.9081    1.0000 </r>
       <r>   -5.2041    1.0000 </r>
       <r>   -0.8069    0.0000 </r>
       <r>    0.5967    0.0000 </r>
       <r>    1.3956    0.0000 </r>
       <r>    1.7868    0.0000 </r>
      </set>
      <set comment="kpoint 4">
       <r>  -22.0206    1.0000 </r>
       <r>  -17.7041    1.0000 </r>
       <r>  -14.8081    1.0000 </r>
       <r>  -10.1403    1.0000 </r>
       <r>   -9.3264    1.0000 </r>
       <r>   -6.1611    1.0000 </r>
       <r>   -6.1042    1.0000 </r>
       <r>   -5.4815    1.0000 </r>
       <r>   -0.4553    0.0000 </r>
       <r>    0.6669    0.0000 </r>
       <r>    1.4665    0.0000 </r>
       <r>    1.8586    0.0000 </r>
      </set>
      <set comment="kpoint 5">
       <r>  -21.9483    1.0000 </r>
       <r>  -18.0919    1.0000 </r>
       <r>  -14.3162    1.0000 </r>
       <r>  -10.0545    1.0000 </r>
       <r>   -9.2546    1.0000 </r>
       <r>   -6.3693    1.0000 </r>
       <r>   -6.3085    1.0000 </r>
       <r>   -5.8097    1.0000 </r>
       <r>   -0.0243    0.0000 </r>
       <r>    0.7650    0.0000 </r>
       <r>    1.5657    0.0000 </r>
       <r>    1.9591    0.0000 </r>
      </set>
      <set comment="kpoint 6">
       <r>  -21.8553    1.0000 </r>
       <r>  -18.4687    1.0000 </r>
       <r>  -13.8066    1.0000 </r>
       <r>   -9.9444    1.0000 </r>
       <r>   -9.1628    1.0000 </r>
       <r>   -6.6955    1.0000 </r>
       <r>   -6.4853    1.0000 </r>
       <r>   -6.1638    1.0000 </r>
       <r>    0.4598    0.0000 </r>
       <r>    0.8912    0.0000 </r>
       <r>    1.6932    0.0000 </r>
       <r>    2.0883    0.0000 </r>
      </set>
      <set comment="kpoint 7">
       <r>  -21.7418    1.0000 </r>
       <r>  -18.8310    1.0000 </r>
       <r>  -13.2839    1.0000 </r>
       <r>   -9.8102    1.0000 </r>
       <r>   -9.0515    1.0000 </r>
       <r>   -7.0744    1.0000 </r>
       <r>   -6.6848    1.0000 </r>
       <r>   -6.5274    1.0000 </r>
       <r>    0.9789    0.0000 </r>
       <r>    1.0455    0.0000 </r>
       <r>    1.8489    0.0000 </r>
       <r>    2.2462    0.0000 </r>
      </set>
      <set comment="kpoint 8">
       <r>  -21.6079    1.0000 </r>
       <r>  -19.1771    1.0000 </r>
       <r>  -12.7508    1.0000 </r>
       <r>   -9.6521    1.0000 </r>
       <r>   -8.9216    1.0000 </r>
       <r>   -7.4975    1.0000 </r>
       <r>   -6.9002    1.0000 </r>
       <r>   -6.8902    1.0000 </r>
       <r>    1.2277    0.0000 </r>
       <r>    1.5207    0.0000 </r>
       <r>    2.0328    0.0000 </r>
       <r>    2.4328    0.0000 </r>
      </set>
      <set comment="kpoint 9">
       <r>  -21.4536    1.0000 </r>
       <r>  -19.5057    1.0000 </r>
       <r>  -12.2100    1.0000 </r>
       <r>   -9.4705    1.0000 </r>
       <r>   -8.7736    1.0000 </r>
       <r>   -7.9568    1.0000 </r>
       <r>   -7.2453    1.0000 </r>
       <r>   -7.1252    1.0000 </r>
       <r>    1.4378    0.0000 </r>
       <r>    2.0758    0.0000 </r>
       <r>    2.2448    0.0000 </r>
       <r>    2.6481    0.0000 </r>
      </set>
      <set comment="kpoint 10">
       <r>  -21.2790    1.0000 </r>
       <r>  -19.8164    1.0000 </r>
       <r>  -11.6638    1.0000 </r>
       <r>   -9.2657    1.0000 </r>
       <r>   -8.6087    1.0000 </r>
       <r>   -8.4449    1.0000 </r>
       <r>   -7.5884    1.0000 </r>
       <r>   -7.3546    1.0000 </r>
       <r>    1.6758    0.0000 </r>
       <r>    2.4847    0.0000 </r>
       <r>    2.6361    0.0000 </r>
       <r>    2.8921    0.0000 </r>
      </set>
      <set comment="kpoint 11">
       <r>  -21.0844    1.0000 </r>
       <r>  -20.1084    1.0000 </r>
       <r>  -11.1148    1.0000 </r>
       <r>   -9.0383    1.0000 </r>
       <r>   -8.9552    1.0000 </r>
       <r>   -8.4281    1.0000 </r>
       <r>   -7.9162    1.0000 </r>
       <r>   -7.5837    1.0000 </r>
       <r>    1.9416    0.0000 </r>
       <r>    2.7522    0.0000 </r>
       <r>    3.1647    0.0000 </r>
       <r>    3.1911    0.0000 </r>
      </set>
      <set comment="kpoint 12">
       <r>  -20.8698    1.0000 </r>
       <r>  -20.3816    1.0000 </r>
       <r>  -10.5659    1.0000 </r>
       <r>   -9.4820    1.0000 </r>
       <r>   -8.7887    1.0000 </r>
       <r>   -8.2332    1.0000 </r>
       <r>   -8.2266    1.0000 </r>
       <r>   -7.8086    1.0000 </r>
       <r>    2.2350    0.0000 </r>
       <r>    2.9039    0.0000 </r>
       <r>    3.0463    0.0000 </r>
       <r>    3.4659    0.0000 </r>
      </set>
      <set comment="kpoint 13">
       <r>  -20.6355    1.0000 </r>
       <r>  -20.6355    1.0000 </r>
       <r>  -10.0204    1.0000 </r>
       <r>  -10.0204    1.0000 </r>
       <r>   -8.5179    1.0000 </r>
       <r>   -8.5179    1.0000 </r>
       <r>   -8.0260    1.0000 </r>
       <r>   -8.0260    1.0000 </r>
       <r>    2.5560    0.0000 </r>
       <r>    2.5560    0.0000 </r>
       <r>    3.3633    0.0000 </r>
       <r>    3.3634    0.0000 </r>
      </set>
      <set comment="kpoint 14">
       <r>  -22.1006    1.0000 </r>
       <r>  -16.7520    1.0000 </r>
       <r>  -15.8733    1.0000 </r>
       <r>  -10.2353    1.0000 </r>
       <r>   -9.4783    1.0000 </r>
       <r>   -6.0115    1.0000 </r>
       <r>   -5.7788    1.0000 </r>
       <r>   -4.9272    1.0000 </r>
       <r>   -1.1336    0.0000 </r>
       <r>    0.5584    0.0000 </r>
       <r>    1.3569    0.0000 </r>
       <r>    1.7476    0.0000 </r>
      </set>
      <set comment="kpoint 15">
       <r>  -22.0903    1.0000 </r>
       <r>  -16.9416    1.0000 </r>
       <r>  -15.6687    1.0000 </r>
       <r>  -10.2230    1.0000 </r>
       <r>   -9.4679    1.0000 </r>
       <r>   -6.0383    1.0000 </r>
       <r>   -5.8155    1.0000 </r>
       <r>   -4.9968    1.0000 </r>
       <r>   -1.0491    0.0000 </r>
       <r>    0.5724    0.0000 </r>
       <r>    1.3711    0.0000 </r>
       <r>    1.7620    0.0000 </r>
      </set>
      <set comment="kpoint 16">
       <r>  -22.0592    1.0000 </r>
       <r>  -17.3024    1.0000 </r>
       <r>  -15.2630    1.0000 </r>
       <r>  -10.1862    1.0000 </r>
       <r>   -9.4367    1.0000 </r>
       <r>   -6.1191    1.0000 </r>
       <r>   -5.9223    1.0000 </r>
       <r>   -5.1888    1.0000 </r>
       <r>   -0.8126    0.0000 </r>
       <r>    0.6145    0.0000 </r>
       <r>    1.4136    0.0000 </r>
       <r>    1.8051    0.0000 </r>
      </set>
      <set comment="kpoint 17">
       <r>  -22.0075    1.0000 </r>
       <r>  -17.6922    1.0000 </r>
       <r>  -14.7986    1.0000 </r>
       <r>  -10.1248    1.0000 </r>
       <r>   -9.3850    1.0000 </r>
       <r>   -6.2582    1.0000 </r>
       <r>   -6.0873    1.0000 </r>
       <r>   -5.4665    1.0000 </r>
       <r>   -0.4613    0.0000 </r>
       <r>    0.6846    0.0000 </r>
       <r>    1.4845    0.0000 </r>
       <r>    1.8769    0.0000 </r>
      </set>
      <set comment="kpoint 18">
       <r>  -21.9351    1.0000 </r>
       <r>  -18.0799    1.0000 </r>
       <r>  -14.3073    1.0000 </r>
       <r>  -10.0390    1.0000 </r>
       <r>   -9.3129    1.0000 </r>
       <r>   -6.4705    1.0000 </r>
       <r>   -6.2839    1.0000 </r>
       <r>   -5.7950    1.0000 </r>
       <r>   -0.0309    0.0000 </r>
       <r>    0.7828    0.0000 </r>
       <r>    1.5837    0.0000 </r>
       <r>    1.9773    0.0000 </r>
      </set>
      <set comment="kpoint 19">
       <r>  -21.8422    1.0000 </r>
       <r>  -18.4565    1.0000 </r>
       <r>  -13.7985    1.0000 </r>
       <r>   -9.9289    1.0000 </r>
       <r>   -9.2208    1.0000 </r>
       <r>   -6.7639    1.0000 </r>
       <r>   -6.4899    1.0000 </r>
       <r>   -6.1492    1.0000 </r>
       <r>    0.4521    0.0000 </r>
       <r>    0.9090    0.0000 </r>
       <r>    1.7111    0.0000 </r>
       <r>    2.1065    0.0000 </r>
      </set>
      <set comment="kpoint 20">
       <r>  -21.7287    1.0000 </r>
       <r>  -18.8187    1.0000 </r>
       <r>  -13.2767    1.0000 </r>
       <r>   -9.7947    1.0000 </r>
       <r>   -9.1092    1.0000 </r>
       <r>   -7.1236    1.0000 </r>
       <r>   -6.7051    1.0000 </r>
       <r>   -6.5129    1.0000 </r>
       <r>    0.9699    0.0000 </r>
       <r>    1.0633    0.0000 </r>
       <r>    1.8669    0.0000 </r>
       <r>    2.2645    0.0000 </r>
      </set>
      <set comment="kpoint 21">
       <r>  -21.5948    1.0000 </r>
       <r>  -19.1646    1.0000 </r>
       <r>  -12.7448    1.0000 </r>
       <r>   -9.6367    1.0000 </r>
       <r>   -8.9786    1.0000 </r>
       <r>   -7.5337    1.0000 </r>
       <r>   -6.9302    1.0000 </r>
       <r>   -6.8756    1.0000 </r>
       <r>    1.2455    0.0000 </r>
       <r>    1.5100    0.0000 </r>
       <r>    2.0508    0.0000 </r>
       <r>    2.4511    0.0000 </r>
      </set>
      <set comment="kpoint 22">
       <r>  -21.4405    1.0000 </r>
       <r>  -19.4931    1.0000 </r>
       <r>  -12.2053    1.0000 </r>
       <r>   -9.4552    1.0000 </r>
       <r>   -8.8300    1.0000 </r>
       <r>   -7.9833    1.0000 </r>
       <r>   -7.2308    1.0000 </r>
       <r>   -7.1620    1.0000 </r>
       <r>    1.4556    0.0000 </r>
       <r>    2.0632    0.0000 </r>
       <r>    2.2627    0.0000 </r>
       <r>    2.6664    0.0000 </r>
      </set>
      <set comment="kpoint 23">
       <r>  -21.2660    1.0000 </r>
       <r>  -19.8037    1.0000 </r>
       <r>  -11.6608    1.0000 </r>
       <r>   -9.2505    1.0000 </r>
       <r>   -8.6642    1.0000 </r>
       <r>   -8.4640    1.0000 </r>
       <r>   -7.5737    1.0000 </r>
       <r>   -7.3965    1.0000 </r>
       <r>    1.6937    0.0000 </r>
       <r>    2.5026    0.0000 </r>
       <r>    2.6214    0.0000 </r>
       <r>    2.9104    0.0000 </r>
      </set>
      <set comment="kpoint 24">
       <r>  -21.0714    1.0000 </r>
       <r>  -20.0957    1.0000 </r>
       <r>  -11.1138    1.0000 </r>
       <r>   -9.0231    1.0000 </r>
       <r>   -8.9684    1.0000 </r>
       <r>   -8.4824    1.0000 </r>
       <r>   -7.9015    1.0000 </r>
       <r>   -7.6294    1.0000 </r>
       <r>    1.9595    0.0000 </r>
       <r>    2.7701    0.0000 </r>
       <r>    3.1749    0.0000 </r>
       <r>    3.1830    0.0000 </r>
      </set>
      <set comment="kpoint 25">
       <r>  -20.8569    1.0000 </r>
       <r>  -20.3688    1.0000 </r>
       <r>  -10.5674    1.0000 </r>
       <r>   -9.4905    1.0000 </r>
       <r>   -8.7737    1.0000 </r>
       <r>   -8.2861    1.0000 </r>
       <r>   -8.2118    1.0000 </r>
       <r>   -7.8573    1.0000 </r>
       <r>    2.2530    0.0000 </r>
       <r>    2.9220    0.0000 </r>
       <r>    3.0643    0.0000 </r>
       <r>    3.4844    0.0000 </r>
      </set>
      <set comment="kpoint 26">
       <r>  -20.6226    1.0000 </r>
       <r>  -20.6226    1.0000 </r>
       <r>  -10.0250    1.0000 </r>
       <r>  -10.0250    1.0000 </r>
       <r>   -8.5029    1.0000 </r>
       <r>   -8.5029    1.0000 </r>
       <r>   -8.0770    1.0000 </r>
       <r>   -8.0770    1.0000 </r>
       <r>    2.5739    0.0000 </r>
       <r>    2.5739    0.0000 </r>
       <r>    3.3814    0.0000 </r>
       <r>    3.3814    0.0000 </r>
      </set>
      <set comment="kpoint 27">
       <r>  -22.0612    1.0000 </r>
       <r>  -16.7180    1.0000 </r>
       <r>  -15.8417    1.0000 </r>
       <r>  -10.1885    1.0000 </r>
       <r>   -9.6499    1.0000 </r>
       <r>   -6.1697    1.0000 </r>
       <r>   -5.8734    1.0000 </r>
       <r>   -4.8795    1.0000 </r>
       <r>   -1.1517    0.0000 </r>
       <r>    0.6117    0.0000 </r>
       <r>    1.4110    0.0000 </r>
       <r>    1.8024    0.0000 </r>
      </set>
      <set comment="kpoint 28">
       <r>  -22.0509    1.0000 </r>
       <r>  -16.9073    1.0000 </r>
       <r>  -15.6376    1.0000 </r>
       <r>  -10.1763    1.0000 </r>
       <r>   -9.6394    1.0000 </r>
       <r>   -6.2030    1.0000 </r>
       <r>   -5.9014    1.0000 </r>
       <r>   -4.9496    1.0000 </r>
       <r>   -1.0671    0.0000 </r>
       <r>    0.6257    0.0000 </r>
       <r>    1.4252    0.0000 </r>
       <r>    1.8167    0.0000 </r>
      </set>
      <set comment="kpoint 29">
       <r>  -22.0199    1.0000 </r>
       <r>  -17.2675    1.0000 </r>
       <r>  -15.2330    1.0000 </r>
       <r>  -10.1394    1.0000 </r>
       <r>   -9.6080    1.0000 </r>
       <r>   -6.3012    1.0000 </r>
       <r>   -5.9850    1.0000 </r>
       <r>   -5.1428    1.0000 </r>
       <r>   -0.8306    0.0000 </r>
       <r>    0.6678    0.0000 </r>
       <r>    1.4677    0.0000 </r>
       <r>    1.8598    0.0000 </r>
      </set>
      <set comment="kpoint 30">
       <r>  -21.9682    1.0000 </r>
       <r>  -17.6567    1.0000 </r>
       <r>  -14.7703    1.0000 </r>
       <r>  -10.0781    1.0000 </r>
       <r>   -9.5558    1.0000 </r>
       <r>   -6.4602    1.0000 </r>
       <r>   -6.1213    1.0000 </r>
       <r>   -5.4217    1.0000 </r>
       <r>   -0.4800    0.0000 </r>
       <r>    0.7380    0.0000 </r>
       <r>    1.5385    0.0000 </r>
       <r>    1.9316    0.0000 </r>
      </set>
      <set comment="kpoint 31">
       <r>  -21.8958    1.0000 </r>
       <r>  -18.0438    1.0000 </r>
       <r>  -14.2809    1.0000 </r>
       <r>   -9.9924    1.0000 </r>
       <r>   -9.4829    1.0000 </r>
       <r>   -6.6766    1.0000 </r>
       <r>   -6.3033    1.0000 </r>
       <r>   -5.7510    1.0000 </r>
       <r>   -0.0516    0.0000 </r>
       <r>    0.8362    0.0000 </r>
       <r>    1.6377    0.0000 </r>
       <r>    2.0321    0.0000 </r>
      </set>
      <set comment="kpoint 32">
       <r>  -21.8029    1.0000 </r>
       <r>  -18.4199    1.0000 </r>
       <r>  -13.7745    1.0000 </r>
       <r>   -9.8825    1.0000 </r>
       <r>   -9.3898    1.0000 </r>
       <r>   -6.9486    1.0000 </r>
       <r>   -6.5197    1.0000 </r>
       <r>   -6.1057    1.0000 </r>
       <r>    0.4283    0.0000 </r>
       <r>    0.9624    0.0000 </r>
       <r>    1.7651    0.0000 </r>
       <r>    2.1613    0.0000 </r>
      </set>
      <set comment="kpoint 33">
       <r>  -21.6895    1.0000 </r>
       <r>  -18.7817    1.0000 </r>
       <r>  -13.2556    1.0000 </r>
       <r>   -9.7485    1.0000 </r>
       <r>   -9.2769    1.0000 </r>
       <r>   -7.2747    1.0000 </r>
       <r>   -6.7578    1.0000 </r>
       <r>   -6.4695    1.0000 </r>
       <r>    0.9419    0.0000 </r>
       <r>    1.1167    0.0000 </r>
       <r>    1.9208    0.0000 </r>
       <r>    2.3192    0.0000 </r>
      </set>
      <set comment="kpoint 34">
       <r>  -21.5556    1.0000 </r>
       <r>  -19.1272    1.0000 </r>
       <r>  -12.7272    1.0000 </r>
       <r>   -9.5906    1.0000 </r>
       <r>   -9.1446    1.0000 </r>
       <r>   -7.6512    1.0000 </r>
       <r>   -7.0069    1.0000 </r>
       <r>   -6.8322    1.0000 </r>
       <r>    1.2990    0.0000 </r>
       <r>    1.4769    0.0000 </r>
       <r>    2.1047    0.0000 </r>
       <r>    2.5058    0.0000 </r>
      </set>
      <set comment="kpoint 35">
       <r>  -21.4014    1.0000 </r>
       <r>  -19.4554    1.0000 </r>
       <r>  -12.1920    1.0000 </r>
       <r>   -9.4093    1.0000 </r>
       <r>   -8.9937    1.0000 </r>
       <r>   -8.0715    1.0000 </r>
       <r>   -7.2595    1.0000 </r>
       <r>   -7.1871    1.0000 </r>
       <r>    1.5091    0.0000 </r>
       <r>    2.0242    0.0000 </r>
       <r>    2.3166    0.0000 </r>
       <r>    2.7212    0.0000 </r>
      </set>
      <set comment="kpoint 36">
       <r>  -21.2270    1.0000 </r>
       <r>  -19.7657    1.0000 </r>
       <r>  -11.6528    1.0000 </r>
       <r>   -9.2048    1.0000 </r>
       <r>   -8.8250    1.0000 </r>
       <r>   -8.5280    1.0000 </r>
       <r>   -7.5298    1.0000 </r>
       <r>   -7.5108    1.0000 </r>
       <r>    1.7472    0.0000 </r>
       <r>    2.5565    0.0000 </r>
       <r>    2.5762    0.0000 </r>
       <r>    2.9652    0.0000 </r>
      </set>
      <set comment="kpoint 37">
       <r>  -21.0325    1.0000 </r>
       <r>  -20.0575    1.0000 </r>
       <r>  -11.1123    1.0000 </r>
       <r>   -9.0130    1.0000 </r>
       <r>   -8.9777    1.0000 </r>
       <r>   -8.6394    1.0000 </r>
       <r>   -7.8573    1.0000 </r>
       <r>   -7.7569    1.0000 </r>
       <r>    2.0131    0.0000 </r>
       <r>    2.8240    0.0000 </r>
       <r>    3.1248    0.0000 </r>
       <r>    3.2378    0.0000 </r>
      </set>
      <set comment="kpoint 38">
       <r>  -20.8181    1.0000 </r>
       <r>  -20.3303    1.0000 </r>
       <r>  -10.5740    1.0000 </r>
       <r>   -9.5195    1.0000 </r>
       <r>   -8.7285    1.0000 </r>
       <r>   -8.4383    1.0000 </r>
       <r>   -8.1672    1.0000 </r>
       <r>   -7.9951    1.0000 </r>
       <r>    2.3066    0.0000 </r>
       <r>    2.9761    0.0000 </r>
       <r>    3.1183    0.0000 </r>
       <r>    3.5392    0.0000 </r>
      </set>
      <set comment="kpoint 39">
       <r>  -20.5840    1.0000 </r>
       <r>  -20.5840    1.0000 </r>
       <r>  -10.0416    1.0000 </r>
       <r>  -10.0416    1.0000 </r>
       <r>   -8.4581    1.0000 </r>
       <r>   -8.4581    1.0000 </r>
       <r>   -8.2229    1.0000 </r>
       <r>   -8.2229    1.0000 </r>
       <r>    2.6277    0.0000 </r>
       <r>    2.6277    0.0000 </r>
       <r>    3.4354    0.0000 </r>
       <r>    3.4357    0.0000 </r>
      </set>
      <set comment="kpoint 40">
       <r>  -21.9956    1.0000 </r>
       <r>  -16.6614    1.0000 </r>
       <r>  -15.7897    1.0000 </r>
       <r>  -10.1107    1.0000 </r>
       <r>   -9.9212    1.0000 </r>
       <r>   -6.4205    1.0000 </r>
       <r>   -6.0278    1.0000 </r>
       <r>   -4.8000    1.0000 </r>
       <r>   -1.1845    0.0000 </r>
       <r>    0.7006    0.0000 </r>
       <r>    1.5011    0.0000 </r>
       <r>    1.8936    0.0000 </r>
      </set>
      <set comment="kpoint 41">
       <r>  -21.9853    1.0000 </r>
       <r>  -16.8502    1.0000 </r>
       <r>  -15.5864    1.0000 </r>
       <r>  -10.0984    1.0000 </r>
[...]
       <r>   -9.0449    1.0000 </r>
       <r>   -5.6513    1.0000 </r>
       <r>   -5.6513    1.0000 </r>
       <r>   -0.5451    0.0000 </r>
       <r>   -0.5451    0.0000 </r>
       <r>    4.8166    0.0000 </r>
       <r>    4.8166    0.0000 </r>
      </set>
      <set comment="kpoint 209">
       <r>  -18.8395    1.0000 </r>
       <r>  -17.1330    1.0000 </r>
       <r>  -13.8958    1.0000 </r>
       <r>  -12.3325    1.0000 </r>
       <r>  -12.3268    1.0000 </r>
       <r>  -10.8564    1.0000 </r>
       <r>   -6.4841    1.0000 </r>
       <r>   -4.6673    1.0000 </r>
       <r>   -0.9948    0.0000 </r>
       <r>    1.0804    0.0000 </r>
       <r>    5.0724    0.0000 </r>
       <r>    5.8612    0.0000 </r>
      </set>
      <set comment="kpoint 210">
       <r>  -18.8297    1.0000 </r>
       <r>  -17.1255    1.0000 </r>
       <r>  -13.9872    1.0000 </r>
       <r>  -12.4128    1.0000 </r>
       <r>  -12.2327    1.0000 </r>
       <r>  -10.7721    1.0000 </r>
       <r>   -6.4752    1.0000 </r>
       <r>   -4.6695    1.0000 </r>
       <r>   -1.0057    0.0000 </r>
       <r>    1.0545    0.0000 </r>
       <r>    5.0861    0.0000 </r>
       <r>    5.8774    0.0000 </r>
      </set>
      <set comment="kpoint 211">
       <r>  -18.8005    1.0000 </r>
       <r>  -17.1033    1.0000 </r>
       <r>  -14.2108    1.0000 </r>
       <r>  -12.6269    1.0000 </r>
       <r>  -11.9841    1.0000 </r>
       <r>  -10.5636    1.0000 </r>
       <r>   -6.4489    1.0000 </r>
       <r>   -4.6766    1.0000 </r>
       <r>   -1.0366    0.0000 </r>
       <r>    0.9787    0.0000 </r>
       <r>    5.1271    0.0000 </r>
       <r>    5.9256    0.0000 </r>
      </set>
      <set comment="kpoint 212">
       <r>  -18.7519    1.0000 </r>
       <r>  -17.0679    1.0000 </r>
       <r>  -14.4924    1.0000 </r>
       <r>  -12.9037    1.0000 </r>
       <r>  -11.6609    1.0000 </r>
       <r>  -10.2986    1.0000 </r>
       <r>   -6.4053    1.0000 </r>
       <r>   -4.6901    1.0000 </r>
       <r>   -1.0821    0.0000 </r>
       <r>    0.8584    0.0000 </r>
       <r>    5.1952    0.0000 </r>
       <r>    6.0047    0.0000 </r>
      </set>
      <set comment="kpoint 213">
       <r>  -18.6841    1.0000 </r>
       <r>  -17.0218    1.0000 </r>
       <r>  -14.7891    1.0000 </r>
       <r>  -13.2056    1.0000 </r>
       <r>  -11.3057    1.0000 </r>
       <r>  -10.0180    1.0000 </r>
       <r>   -6.3450    1.0000 </r>
       <r>   -4.7124    1.0000 </r>
       <r>   -1.1342    0.0000 </r>
       <r>    0.7017    0.0000 </r>
       <r>    5.2895    0.0000 </r>
       <r>    6.1158    0.0000 </r>
      </set>
      <set comment="kpoint 214">
       <r>  -18.5973    1.0000 </r>
       <r>  -16.9703    1.0000 </r>
       <r>  -15.0773    1.0000 </r>
       <r>  -13.5144    1.0000 </r>
       <r>  -10.9404    1.0000 </r>
       <r>   -9.7447    1.0000 </r>
       <r>   -6.2687    1.0000 </r>
       <r>   -4.7465    1.0000 </r>
       <r>   -1.1837    0.0000 </r>
       <r>    0.5174    0.0000 </r>
       <r>    5.4065    0.0000 </r>
       <r>    6.1833    0.0000 </r>
      </set>
      <set comment="kpoint 215">
       <r>  -18.4920    1.0000 </r>
       <r>  -16.9228    1.0000 </r>
       <r>  -15.3385    1.0000 </r>
       <r>  -13.8208    1.0000 </r>
       <r>  -10.5784    1.0000 </r>
       <r>   -9.4938    1.0000 </r>
       <r>   -6.1776    1.0000 </r>
       <r>   -4.7950    1.0000 </r>
       <r>   -1.2208    0.0000 </r>
       <r>    0.3146    0.0000 </r>
       <r>    5.5108    0.0000 </r>
       <r>    5.7835    0.0000 </r>
      </set>
      <set comment="kpoint 216">
       <r>  -18.3686    1.0000 </r>
       <r>  -16.8967    1.0000 </r>
       <r>  -15.5505    1.0000 </r>
       <r>  -14.1191    1.0000 </r>
       <r>  -10.2302    1.0000 </r>
       <r>   -9.2777    1.0000 </r>
       <r>   -6.0729    1.0000 </r>
       <r>   -4.8603    1.0000 </r>
       <r>   -1.2372    0.0000 </r>
       <r>    0.1020    0.0000 </r>
       <r>    5.3030    0.0000 </r>
       <r>    5.7875    0.0000 </r>
      </set>
      <set comment="kpoint 217">
       <r>  -18.2278    1.0000 </r>
       <r>  -16.9174    1.0000 </r>
       <r>  -15.6850    1.0000 </r>
       <r>  -14.4054    1.0000 </r>
       <r>   -9.9052    1.0000 </r>
       <r>   -9.1068    1.0000 </r>
       <r>   -5.9563    1.0000 </r>
       <r>   -4.9434    1.0000 </r>
       <r>   -1.2262    0.0000 </r>
       <r>   -0.1129    0.0000 </r>
       <r>    5.0102    0.0000 </r>
       <r>    5.8307    0.0000 </r>
      </set>
      <set comment="kpoint 218">
       <r>  -18.0708    1.0000 </r>
       <r>  -17.0045    1.0000 </r>
       <r>  -15.7208    1.0000 </r>
       <r>  -14.6767    1.0000 </r>
       <r>   -9.6130    1.0000 </r>
       <r>   -8.9902    1.0000 </r>
       <r>   -5.8300    1.0000 </r>
       <r>   -5.0437    1.0000 </r>
       <r>   -1.1840    0.0000 </r>
       <r>   -0.3229    0.0000 </r>
       <r>    4.7914    0.0000 </r>
       <r>    5.4312    0.0000 </r>
      </set>
      <set comment="kpoint 219">
       <r>  -17.8991    1.0000 </r>
       <r>  -17.1506    1.0000 </r>
       <r>  -15.6640    1.0000 </r>
       <r>  -14.9299    1.0000 </r>
       <r>   -9.3628    1.0000 </r>
       <r>   -8.9351    1.0000 </r>
       <r>   -5.6965    1.0000 </r>
       <r>   -5.1591    1.0000 </r>
       <r>   -1.1091    0.0000 </r>
       <r>   -0.5222    0.0000 </r>
       <r>    4.6626    0.0000 </r>
       <r>    5.1023    0.0000 </r>
      </set>
      <set comment="kpoint 220">
       <r>  -17.7152    1.0000 </r>
       <r>  -17.3308    1.0000 </r>
       <r>  -15.5390    1.0000 </r>
       <r>  -15.1617    1.0000 </r>
       <r>   -9.1635    1.0000 </r>
       <r>   -8.9456    1.0000 </r>
       <r>   -5.5589    1.0000 </r>
       <r>   -5.2861    1.0000 </r>
       <r>   -1.0025    0.0000 </r>
       <r>   -0.7050    0.0000 </r>
       <r>    4.6298    0.0000 </r>
       <r>    4.8539    0.0000 </r>
      </set>
      <set comment="kpoint 221">
       <r>  -17.5234    1.0000 </r>
       <r>  -17.5234    1.0000 </r>
       <r>  -15.3672    1.0000 </r>
       <r>  -15.3672    1.0000 </r>
       <r>   -9.0225    1.0000 </r>
       <r>   -9.0225    1.0000 </r>
       <r>   -5.4208    1.0000 </r>
       <r>   -5.4208    1.0000 </r>
       <r>   -0.8666    0.0000 </r>
       <r>   -0.8666    0.0000 </r>
       <r>    4.6944    0.0000 </r>
       <r>    4.6944    0.0000 </r>
      </set>
      <set comment="kpoint 222">
       <r>  -18.4355    1.0000 </r>
       <r>  -17.5785    1.0000 </r>
       <r>  -13.5325    1.0000 </r>
       <r>  -12.7472    1.0000 </r>
       <r>  -11.9977    1.0000 </r>
       <r>  -11.2550    1.0000 </r>
       <r>   -6.0428    1.0000 </r>
       <r>   -5.1296    1.0000 </r>
       <r>   -0.5081    0.0000 </r>
       <r>    0.5315    0.0000 </r>
       <r>    5.6470    0.0000 </r>
       <r>    6.4035    0.0000 </r>
      </set>
      <set comment="kpoint 223">
       <r>  -18.4260    1.0000 </r>
       <r>  -17.5699    1.0000 </r>
       <r>  -13.6244    1.0000 </r>
       <r>  -12.8359    1.0000 </r>
       <r>  -11.9001    1.0000 </r>
       <r>  -11.1655    1.0000 </r>
       <r>   -6.0353    1.0000 </r>
       <r>   -5.1269    1.0000 </r>
       <r>   -0.5251    0.0000 </r>
       <r>    0.5076    0.0000 </r>
       <r>    5.6606    0.0000 </r>
       <r>    6.4206    0.0000 </r>
      </set>
      <set comment="kpoint 224">
       <r>  -18.3974    1.0000 </r>
       <r>  -17.5441    1.0000 </r>
       <r>  -13.8501    1.0000 </r>
       <r>  -13.0555    1.0000 </r>
       <r>  -11.6580    1.0000 </r>
       <r>  -10.9440    1.0000 </r>
       <r>   -6.0129    1.0000 </r>
       <r>   -5.1193    1.0000 </r>
       <r>   -0.5745    0.0000 </r>
       <r>    0.4378    0.0000 </r>
       <r>    5.7015    0.0000 </r>
       <r>    6.4711    0.0000 </r>
      </set>
      <set comment="kpoint 225">
       <r>  -18.3499    1.0000 </r>
       <r>  -17.5017    1.0000 </r>
       <r>  -14.1364    1.0000 </r>
       <r>  -13.3375    1.0000 </r>
       <r>  -11.3453    1.0000 </r>
       <r>  -10.6608    1.0000 </r>
       <r>   -5.9760    1.0000 </r>
       <r>   -5.1079    1.0000 </r>
       <r>   -0.6508    0.0000 </r>
       <r>    0.3274    0.0000 </r>
       <r>    5.7690    0.0000 </r>
       <r>    6.5537    0.0000 </r>
      </set>
      <set comment="kpoint 226">
       <r>  -18.2837    1.0000 </r>
       <r>  -17.4438    1.0000 </r>
       <r>  -14.4426    1.0000 </r>
       <r>  -13.6432    1.0000 </r>
       <r>  -11.0046    1.0000 </r>
       <r>  -10.3576    1.0000 </r>
       <r>   -5.9254    1.0000 </r>
       <r>   -5.0945    1.0000 </r>
       <r>   -0.7459    0.0000 </r>
       <r>    0.1844    0.0000 </r>
       <r>    5.8618    0.0000 </r>
       <r>    6.6671    0.0000 </r>
      </set>
      <set comment="kpoint 227">
       <r>  -18.1993    1.0000 </r>
       <r>  -17.3721    1.0000 </r>
       <r>  -14.7486    1.0000 </r>
       <r>  -13.9544    1.0000 </r>
       <r>  -10.6577    1.0000 </r>
       <r>  -10.0568    1.0000 </r>
       <r>   -5.8624    1.0000 </r>
       <r>   -5.0816    1.0000 </r>
       <r>   -0.8503    0.0000 </r>
       <r>    0.0177    0.0000 </r>
       <r>    5.9696    0.0000 </r>
       <r>    6.4531    0.0000 </r>
      </set>
      <set comment="kpoint 228">
       <r>  -18.0974    1.0000 </r>
       <r>  -17.2899    1.0000 </r>
       <r>  -15.0425    1.0000 </r>
       <r>  -14.2614    1.0000 </r>
       <r>  -10.3186    1.0000 </r>
       <r>   -9.7732    1.0000 </r>
       <r>   -5.7884    1.0000 </r>
       <r>   -5.0725    1.0000 </r>
       <r>   -0.9536    0.0000 </r>
       <r>   -0.1631    0.0000 </r>
       <r>    5.8919    0.0000 </r>
       <r>    6.2023    0.0000 </r>
      </set>
      <set comment="kpoint 229">
       <r>  -17.9787    1.0000 </r>
       <r>  -17.2027    1.0000 </r>
       <r>  -15.3135    1.0000 </r>
       <r>  -14.5583    1.0000 </r>
       <r>   -9.9981    1.0000 </r>
       <r>   -9.5188    1.0000 </r>
       <r>   -5.7056    1.0000 </r>
       <r>   -5.0706    1.0000 </r>
       <r>   -1.0456    0.0000 </r>
       <r>   -0.3489    0.0000 </r>
       <r>    5.5041    0.0000 </r>
       <r>    5.9960    0.0000 </r>
      </set>
      <set comment="kpoint 230">
       <r>  -17.8448    1.0000 </r>
       <r>  -17.1213    1.0000 </r>
       <r>  -15.5484    1.0000 </r>
       <r>  -14.8407    1.0000 </r>
       <r>   -9.7062    1.0000 </r>
       <r>   -9.3042    1.0000 </r>
       <r>   -5.6164    1.0000 </r>
       <r>   -5.0795    1.0000 </r>
       <r>   -1.1171    0.0000 </r>
       <r>   -0.5312    0.0000 </r>
       <r>    5.1571    0.0000 </r>
       <r>    5.5688    0.0000 </r>
      </set>
      <set comment="kpoint 231">
       <r>  -17.6980    1.0000 </r>
       <r>  -17.0640    1.0000 </r>
       <r>  -15.7268    1.0000 </r>
       <r>  -15.1042    1.0000 </r>
       <r>   -9.4527    1.0000 </r>
       <r>   -9.1389    1.0000 </r>
       <r>   -5.5238    1.0000 </r>
       <r>   -5.1021    1.0000 </r>
       <r>   -1.1604    0.0000 </r>
       <r>   -0.7023    0.0000 </r>
       <r>    4.8860    0.0000 </r>
       <r>    5.2077    0.0000 </r>
      </set>
      <set comment="kpoint 232">
       <r>  -17.5421    1.0000 </r>
       <r>  -17.0572    1.0000 </r>
       <r>  -15.8213    1.0000 </r>
       <r>  -15.3438    1.0000 </r>
       <r>   -9.2467    1.0000 </r>
       <r>   -9.0310    1.0000 </r>
       <r>   -5.4314    1.0000 </r>
       <r>   -5.1403    1.0000 </r>
       <r>   -1.1701    0.0000 </r>
       <r>   -0.8549    0.0000 </r>
       <r>    4.7021    0.0000 </r>
       <r>    4.9234    0.0000 </r>
      </set>
      <set comment="kpoint 233">
       <r>  -17.3839    1.0000 </r>
       <r>  -17.1180    1.0000 </r>
       <r>  -15.8141    1.0000 </r>
       <r>  -15.5518    1.0000 </r>
       <r>   -9.0965    1.0000 </r>
       <r>   -8.9866    1.0000 </r>
       <r>   -5.3431    1.0000 </r>
       <r>   -5.1944    1.0000 </r>
       <r>   -1.1434    0.0000 </r>
       <r>   -0.9827    0.0000 </r>
       <r>    4.6124    0.0000 </r>
       <r>    4.7252    0.0000 </r>
      </set>
      <set comment="kpoint 234">
       <r>  -17.2356    1.0000 </r>
       <r>  -17.2356    1.0000 </r>
       <r>  -15.7156    1.0000 </r>
       <r>  -15.7156    1.0000 </r>
       <r>   -9.0086    1.0000 </r>
       <r>   -9.0086    1.0000 </r>
       <r>   -5.2629    1.0000 </r>
       <r>   -5.2629    1.0000 </r>
       <r>   -1.0802    0.0000 </r>
       <r>   -1.0802    0.0000 </r>
       <r>    4.6202    0.0000 </r>
       <r>    4.6202    0.0000 </r>
      </set>
      <set comment="kpoint 235">
       <r>  -18.0142    1.0000 </r>
       <r>  -18.0142    1.0000 </r>
       <r>  -13.1494    1.0000 </r>
       <r>  -13.1494    1.0000 </r>
       <r>  -11.6368    1.0000 </r>
       <r>  -11.6368    1.0000 </r>
       <r>   -5.5899    1.0000 </r>
       <r>   -5.5899    1.0000 </r>
       <r>    0.0013    0.0000 </r>
       <r>    0.0013    0.0000 </r>
       <r>    6.2509    0.0000 </r>
       <r>    6.2509    0.0000 </r>
      </set>
      <set comment="kpoint 236">
       <r>  -18.0050    1.0000 </r>
       <r>  -18.0050    1.0000 </r>
       <r>  -13.2402    1.0000 </r>
       <r>  -13.2402    1.0000 </r>
       <r>  -11.5428    1.0000 </r>
       <r>  -11.5428    1.0000 </r>
       <r>   -5.5843    1.0000 </r>
       <r>   -5.5843    1.0000 </r>
       <r>   -0.0198    0.0000 </r>
       <r>   -0.0198    0.0000 </r>
       <r>    6.2644    0.0000 </r>
       <r>    6.2644    0.0000 </r>
      </set>
      <set comment="kpoint 237">
       <r>  -17.9774    1.0000 </r>
       <r>  -17.9774    1.0000 </r>
       <r>  -13.4639    1.0000 </r>
       <r>  -13.4639    1.0000 </r>
       <r>  -11.3099    1.0000 </r>
       <r>  -11.3099    1.0000 </r>
       <r>   -5.5676    1.0000 </r>
       <r>   -5.5676    1.0000 </r>
       <r>   -0.0813    0.0000 </r>
       <r>   -0.0813    0.0000 </r>
       <r>    6.3050    0.0000 </r>
       <r>    6.3050    0.0000 </r>
      </set>
      <set comment="kpoint 238">
       <r>  -17.9317    1.0000 </r>
       <r>  -17.9317    1.0000 </r>
       <r>  -13.7495    1.0000 </r>
       <r>  -13.7495    1.0000 </r>
       <r>  -11.0108    1.0000 </r>
       <r>  -11.0108    1.0000 </r>
       <r>   -5.5407    1.0000 </r>
       <r>   -5.5407    1.0000 </r>
       <r>   -0.1778    0.0000 </r>
       <r>   -0.1778    0.0000 </r>
       <r>    6.3717    0.0000 </r>
       <r>    6.3717    0.0000 </r>
      </set>
      <set comment="kpoint 239">
       <r>  -17.8684    1.0000 </r>
       <r>  -17.8684    1.0000 </r>
       <r>  -14.0572    1.0000 </r>
       <r>  -14.0572    1.0000 </r>
       <r>  -10.6874    1.0000 </r>
       <r>  -10.6874    1.0000 </r>
       <r>   -5.5048    1.0000 </r>
       <r>   -5.5048    1.0000 </r>
       <r>   -0.3014    0.0000 </r>
       <r>   -0.3014    0.0000 </r>
       <r>    6.4614    0.0000 </r>
       <r>    6.4614    0.0000 </r>
      </set>
      <set comment="kpoint 240">
       <r>  -17.7882    1.0000 </r>
       <r>  -17.7882    1.0000 </r>
       <r>  -14.3684    1.0000 </r>
       <r>  -14.3684    1.0000 </r>
       <r>  -10.3621    1.0000 </r>
       <r>  -10.3621    1.0000 </r>
       <r>   -5.4615    1.0000 </r>
       <r>   -5.4615    1.0000 </r>
       <r>   -0.4428    0.0000 </r>
       <r>   -0.4428    0.0000 </r>
       <r>    6.5299    0.0000 </r>
       <r>    6.5305    0.0000 </r>
      </set>
      <set comment="kpoint 241">
       <r>  -17.6925    1.0000 </r>
       <r>  -17.6925    1.0000 </r>
       <r>  -14.6727    1.0000 </r>
       <r>  -14.6727    1.0000 </r>
       <r>  -10.0492    1.0000 </r>
       <r>  -10.0492    1.0000 </r>
       <r>   -5.4134    1.0000 </r>
       <r>   -5.4134    1.0000 </r>
       <r>   -0.5921    0.0000 </r>
       <r>   -0.5921    0.0000 </r>
       <r>    6.1788    0.0000 </r>
       <r>    6.1789    0.0000 </r>
      </set>
      <set comment="kpoint 242">
       <r>  -17.5832    1.0000 </r>
       <r>  -17.5832    1.0000 </r>
       <r>  -14.9633    1.0000 </r>
       <r>  -14.9633    1.0000 </r>
       <r>   -9.7600    1.0000 </r>
       <r>   -9.7600    1.0000 </r>
       <r>   -5.3632    1.0000 </r>
       <r>   -5.3632    1.0000 </r>
       <r>   -0.7394    0.0000 </r>
       <r>   -0.7394    0.0000 </r>
       <r>    5.7338    0.0000 </r>
       <r>    5.7338    0.0000 </r>
      </set>
      <set comment="kpoint 243">
       <r>  -17.4640    1.0000 </r>
       <r>  -17.4640    1.0000 </r>
       <r>  -15.2336    1.0000 </r>
       <r>  -15.2336    1.0000 </r>
       <r>   -9.5049    1.0000 </r>
       <r>   -9.5049    1.0000 </r>
       <r>   -5.3144    1.0000 </r>
       <r>   -5.3144    1.0000 </r>
       <r>   -0.8755    0.0000 </r>
       <r>   -0.8755    0.0000 </r>
       <r>    5.3436    0.0000 </r>
       <r>    5.3436    0.0000 </r>
      </set>
      <set comment="kpoint 244">
       <r>  -17.3411    1.0000 </r>
       <r>  -17.3411    1.0000 </r>
       <r>  -15.4756    1.0000 </r>
       <r>  -15.4756    1.0000 </r>
       <r>   -9.2938    1.0000 </r>
       <r>   -9.2938    1.0000 </r>
       <r>   -5.2708    1.0000 </r>
       <r>   -5.2708    1.0000 </r>
       <r>   -0.9917    0.0000 </r>
       <r>   -0.9917    0.0000 </r>
       <r>    5.0252    0.0000 </r>
       <r>    5.0252    0.0000 </r>
      </set>
      <set comment="kpoint 245">
       <r>  -17.2258    1.0000 </r>
       <r>  -17.2258    1.0000 </r>
       <r>  -15.6767    1.0000 </r>
       <r>  -15.6767    1.0000 </r>
       <r>   -9.1354    1.0000 </r>
       <r>   -9.1354    1.0000 </r>
       <r>   -5.2361    1.0000 </r>
       <r>   -5.2361    1.0000 </r>
       <r>   -1.0807    0.0000 </r>
       <r>   -1.0807    0.0000 </r>
       <r>    4.7894    0.0000 </r>
       <r>    4.7894    0.0000 </r>
      </set>
      <set comment="kpoint 246">
       <r>  -17.1379    1.0000 </r>
       <r>  -17.1379    1.0000 </r>
       <r>  -15.8163    1.0000 </r>
       <r>  -15.8163    1.0000 </r>
       <r>   -9.0371    1.0000 </r>
       <r>   -9.0371    1.0000 </r>
       <r>   -5.2138    1.0000 </r>
       <r>   -5.2138    1.0000 </r>
       <r>   -1.1367    0.0000 </r>
       <r>   -1.1367    0.0000 </r>
       <r>    4.6443    0.0000 </r>
       <r>    4.6443    0.0000 </r>
      </set>
      <set comment="kpoint 247">
       <r>  -17.1038    1.0000 </r>
       <r>  -17.1038    1.0000 </r>
       <r>  -15.8677    1.0000 </r>
       <r>  -15.8677    1.0000 </r>
       <r>   -9.0038    1.0000 </r>
       <r>   -9.0038    1.0000 </r>
       <r>   -5.2061    1.0000 </r>
       <r>   -5.2061    1.0000 </r>
       <r>   -1.1557    0.0000 </r>
       <r>   -1.1557    0.0000 </r>
       <r>    4.5953    0.0000 </r>
       <r>    4.5953    0.0000 </r>
      </set>
     </set>
    </set>
   </array>
  </eigenvalues>
  <separator name="orbital magnetization" >
   <v name="MAGDIPOLOUT">      0.00000000      0.00000000      0.00000000</v>
  </separator>
 </calculation>
 <structure name="finalpos" >
  <crystal>
   <varray name="basis" >
    <v>       4.25835300       0.00000000       0.00000000 </v>
    <v>       0.00000000       2.51738794       0.00000000 </v>
    <v>       0.00000000       0.00000000      19.66784951 </v>
   </varray>
   <i name="volume">    210.83790140 </i>
   <varray name="rec_basis" >
    <v>       0.23483257       0.00000000       0.00000000 </v>
    <v>       0.00000000       0.39723715       0.00000000 </v>
    <v>       0.00000000       0.00000000       0.05084440 </v>
   </varray>
  </crystal>
  <varray name="positions" >
   <v>       0.00052542      -0.00000000       0.00000000 </v>
   <v>       0.16614125       0.50000000      -0.00000000 </v>
   <v>       0.50052542       0.50000000       0.00000000 </v>
   <v>       0.66614125      -0.00000000      -0.00000000 </v>
  </varray>
 </structure>
</modeling>
