gr                                      
           1
     4.258353    0.000000    0.000000
     0.000000    2.517388    0.000000
     0.000000    0.000000   19.667850
   C 
   4
Direct configuration=     1
   0.00051919  0.00000000  0.00000000
   0.16614747  0.50000000  0.00000000
   0.50051919  0.50000000  0.00000000
   0.66614747  0.00000000  0.00000000
Direct configuration=     2
   0.00055053 -0.00000000  0.00000000
   0.16611614  0.50000000 -0.00000000
   0.50055053  0.50000000  0.00000000
   0.66611614 -0.00000000 -0.00000000
Direct configuration=     3
   0.00052542 -0.00000000  0.00000000
   0.16614125  0.50000000 -0.00000000
   0.50052542  0.50000000  0.00000000
   0.66614125 -0.00000000 -0.00000000
