    4    4  400    1
  0.5270948E+02  0.4258391E-09  0.2517265E-09  0.1966864E-08  0.5000000E-15
  1.000000000000000E-004
  CAR 
 gr                                      
     16    247     12
 
  0.0000000E+00  0.0000000E+00  0.0000000E+00  0.1157407E-02
    1      -22.114087
    2      -16.763925
    3      -15.884162
    4      -10.251174
    5       -9.418884
    6       -5.956988
    7       -5.747029
    8       -4.943525
    9       -1.127727
   10        0.540670
   11        1.339381
   12        1.730718
 
  0.4166667E-01  0.0000000E+00  0.0000000E+00  0.2314815E-02
    1      -22.103736
    2      -16.953602
    3      -15.679422
    4      -10.238875
    5       -9.408513
    6       -5.980500
    7       -5.787707
    8       -5.012949
    9       -1.043266
   10        0.554698
   11        1.353558
   12        1.745074
 
  0.8333333E-01  0.0000000E+00  0.0000000E+00  0.2314815E-02
    1      -22.072688
    2      -17.314591
    3      -15.273333
    4      -10.201997
    5       -9.377451
    6       -6.049685
    7       -5.908230
    8       -5.204505
    9       -0.806778
   10        0.596781
   11        1.396087
   12        1.788140
 
  0.1250000E+00  0.0000000E+00  0.0000000E+00  0.2314815E-02
    1      -22.020962
    2      -17.704559
    3      -14.808506
    4      -10.140596
    5       -9.325849
    6       -6.160744
    7       -6.104296
    8       -5.481824
    9       -0.455161
   10        0.666916
   11        1.466955
   12        1.859918
 
  0.1666667E+00  0.0000000E+00  0.0000000E+00  0.2314815E-02
    1      -21.948593
    2      -18.092369
    3      -14.316549
    4      -10.054771
    5       -9.253965
    6       -6.369409
    7       -6.308044
    8       -5.810058
    9       -0.024154
   10        0.765095
   11        1.566144
   12        1.960407
 
  0.2083333E+00  0.0000000E+00  0.0000000E+00  0.2314815E-02
    1      -21.855630
    2      -18.469173
    3      -13.806993
    4       -9.944660
    5       -9.162170
    6       -6.695686
    7       -6.484913
    8       -6.164121
    9        0.459896
   10        0.891305
   11        1.693622
   12        2.089605
 
  0.2500000E+00  0.0000000E+00  0.0000000E+00  0.2314815E-02
    1      -21.742138
    2      -18.831459
    3      -13.284248
    4       -9.810453
    5       -9.050964
    6       -7.074630
    7       -6.684374
    8       -6.527720
    9        0.979053
   10        1.045523
   11        1.849345
   12        2.247509
 
  0.2916667E+00  0.0000000E+00  0.0000000E+00  0.2314815E-02
    1      -21.608197
    2      -19.177459
    3      -12.751224
    4       -9.652391
    5       -8.920990
    6       -7.497762
    7       -6.899698
    8       -6.890473
    9        1.227718
   10        1.520864
   11        2.033247
   12        2.434115
 
  0.3333333E+00  0.0000000E+00  0.0000000E+00  0.2314815E-02
    1      -21.453903
    2      -19.506125
    3      -12.210387
    4       -9.470783
    5       -8.773055
    6       -7.957049
    7       -7.245638
    8       -7.124747
    9        1.437845
   10        2.075984
   11        2.245228
   12        2.649413
 
  0.3750000E+00  0.0000000E+00  0.0000000E+00  0.2314815E-02
    1      -21.279371
    2      -19.816754
    3      -11.664168
    4       -9.266012
    5       -8.608160
    6       -8.445149
    7       -7.588702
    8       -7.354121
    9        1.675844
   10        2.485118
   11        2.636324
   12        2.893389
 
  0.4166667E+00  0.0000000E+00  0.0000000E+00  0.2314815E-02
    1      -21.084735
    2      -20.108832
    3      -11.115164
    4       -9.038556
    5       -8.955512
    6       -8.427537
    7       -7.916535
    8       -7.583191
    9        1.941629
   10        2.752580
   11        3.166012
   12        3.191231
 
  0.4583333E+00  0.0000000E+00  0.0000000E+00  0.2314815E-02
    1      -20.870155
    2      -20.381960
    3      -10.566264
    4       -9.482382
    5       -8.789014
    6       -8.232691
    7       -8.226899
    8       -7.808054
    9        2.235074
   10        2.903940
   11        3.046734
   12        3.467362
 
  0.5000000E+00  0.0000000E+00  0.0000000E+00  0.1157407E-02
    1      -20.635823
    2      -20.635823
    3      -10.020748
    4      -10.020748
    5       -8.518141
    6       -8.518141
    7       -8.025454
    8       -8.025454
    9        2.555975
   10        2.555975
   11        3.363711
   12        3.363711
 
  0.0000000E+00  0.2777778E-01  0.0000000E+00  0.2314815E-02
    1      -22.100954
    2      -16.752603
    3      -15.873548
    4      -10.235568
    5       -9.477698
    6       -6.011136
    7       -5.778873
    8       -4.927611
    9       -1.133482
   10        0.558441
   11        1.357406
   12        1.748967
 
  0.4166667E-01  0.2777778E-01  0.0000000E+00  0.4629630E-02
    1      -22.090604
    2      -16.942162
    3      -15.668986
    4      -10.223274
    5       -9.467300
    6       -6.037943
    7       -5.815532
    8       -4.997206
    9       -1.048980
   10        0.572471
   11        1.371582
   12        1.763323
 
  0.8333333E-01  0.2777778E-01  0.0000000E+00  0.4629630E-02
    1      -22.059560
    2      -17.302937
    3      -15.263290
    4      -10.186409
    5       -9.436152
    6       -6.118767
    7       -5.922382
    8       -5.189146
    9       -0.812496
   10        0.614558
   11        1.414107
   12        1.806390
 
  0.1250000E+00  0.2777778E-01  0.0000000E+00  0.4629630E-02
    1      -22.007841
    2      -17.692696
    3      -14.798982
    4      -10.125031
    5       -9.384402
    6       -6.257953
    7       -6.087316
    8       -5.466846
    9       -0.461146
   10        0.684699
   11        1.484971
   12        1.878169
 
  0.1666667E+00  0.2777778E-01  0.0000000E+00  0.4629630E-02
    1      -21.935482
    2      -18.080320
    3      -14.307660
    4      -10.039237
    5       -9.312298
    6       -6.470340
    7       -6.283796
    8       -5.795351
    9       -0.030780
   10        0.782887
   11        1.584152
   12        1.978660
 
  0.2083333E+00  0.2777778E-01  0.0000000E+00  0.4629630E-02
    1      -21.842534
    2      -18.456962
    3      -13.798874
    4       -9.929167
    5       -9.220199
    6       -6.763953
    7       -6.489635
    8       -6.149561
    9        0.452245
   10        0.909107
   11        1.711620
   12        2.107860
 
  0.2500000E+00  0.2777778E-01  0.0000000E+00  0.4629630E-02
    1      -21.729060
    2      -18.819106
    3      -13.277060
    4       -9.795009
    5       -9.108585
    6       -7.123706
    7       -6.704739
    8       -6.513212
    9        0.970026
   10        1.063338
   11        1.867332
   12        2.265767
 
  0.2916667E+00  0.2777778E-01  0.0000000E+00  0.4629630E-02
    1      -21.595140
    2      -19.164984
    3      -12.745163
    4       -9.637006
    5       -8.978076
    6       -7.533900
    7       -6.929775
    8       -6.875949
    9        1.245547
   10        1.510154
   11        2.051223
   12        2.452377
 
  0.3333333E+00  0.2777778E-01  0.0000000E+00  0.4629630E-02
    1      -21.440872
    2      -19.493545
    3      -12.205696
    4       -9.455465
    5       -8.829447
    6       -7.983585
    7       -7.231055
    8       -7.161593
    9        1.455689
   10        2.063351
   11        2.263193
   12        2.667681
 
  0.3750000E+00  0.2777778E-01  0.0000000E+00  0.4629630E-02
    1      -21.266370
    2      -19.804084
    3      -11.661146
    4       -9.250769
    5       -8.663663
    6       -8.464226
    7       -7.574035
    8       -7.395994
    9        1.693706
   10        2.503077
   11        2.621678
   12        2.911664
 
  0.4166667E+00  0.2777778E-01  0.0000000E+00  0.4629630E-02
    1      -21.071770
    2      -20.096084
    3      -11.114183
    4       -9.023398
    5       -8.968673
    6       -8.481902
    7       -7.901771
    8       -7.628915
    9        1.959513
   10        2.770546
   11        3.175181
   12        3.184300
 
  0.4583333E+00  0.2777778E-01  0.0000000E+00  0.4629630E-02
    1      -20.857233
    2      -20.369146
    3      -10.567788
    4       -9.490807
    5       -8.773948
    6       -8.285605
    7       -8.212033
    8       -7.856776
    9        2.252989
   10        2.922019
   11        3.064735
   12        3.485525
 
  0.5000000E+00  0.2777778E-01  0.0000000E+00  0.2314815E-02
    1      -20.622951
    2      -20.622951
    3      -10.025357
    4      -10.025357
    5       -8.503173
    6       -8.503173
    7       -8.076523
    8       -8.076523
    9        2.573944
   10        2.573944
   11        3.381737
   12        3.381737
 
  0.0000000E+00  0.5555556E-01  0.0000000E+00  0.2314815E-02
    1      -22.061565
    2      -16.718640
    3      -15.841905
    4      -10.188784
    5       -9.649325
    6       -6.169351
    7       -5.873425
    8       -4.879887
    9       -1.151541
   10        0.611764
   11        1.411473
   12        1.803714
 
  0.4166667E-01  0.5555556E-01  0.0000000E+00  0.4629630E-02
    1      -22.051219
    2      -16.907861
    3      -15.637864
    4      -10.176503
    5       -9.638836
    6       -6.202667
    7       -5.901474
    8       -4.950012
    9       -1.066903
   10        0.625796
   11        1.425646
   12        1.818071
 
  0.8333333E-01  0.5555556E-01  0.0000000E+00  0.4629630E-02
    1      -22.020188
    2      -17.268006
    3      -15.233358
    4      -10.139679
    5       -9.607413
    6       -6.300825
    7       -5.985051
    8       -5.143136
    9       -0.830418
   10        0.667892
   11        1.468162
   12        1.861140
 
  0.1250000E+00  0.5555556E-01  0.0000000E+00  0.4629630E-02
    1      -21.968491
    2      -17.657139
    3      -14.770632
    4      -10.078369
    5       -9.555184
    6       -6.459866
    7       -6.121311
    8       -5.422006
    9       -0.479874
   10        0.738048
   11        1.539008
   12        1.932922
 
  0.1666667E+00  0.5555556E-01  0.0000000E+00  0.4629630E-02
    1      -21.896164
    2      -18.044201
    3      -14.281269
    4       -9.992670
    5       -9.482368
    6       -6.676326
    7       -6.303248
    8       -5.751334
    9       -0.051456
   10        0.836258
   11        1.638165
   12        2.033417
 
  0.2083333E+00  0.5555556E-01  0.0000000E+00  0.4629630E-02
    1      -21.803258
    2      -18.420352
    3      -13.774865
    4       -9.882722
    5       -9.389281
    6       -6.948448
    7       -6.519616
    8       -6.105990
    9        0.428451
   10        0.962506
   11        1.765604
   12        2.162624
 
  0.2500000E+00  0.5555556E-01  0.0000000E+00  0.4629630E-02
    1      -21.689836
    2      -18.782071
    3      -13.255945
    4       -9.748715
    5       -9.276341
    6       -7.274681
    7       -6.757657
    8       -6.469790
    9        0.942041
   10        1.116769
   11        1.921282
   12        2.320539
 
  0.2916667E+00  0.5555556E-01  0.0000000E+00  0.4629630E-02
    1      -21.555982
    2      -19.127582
    3      -12.727571
    4       -9.590890
    5       -9.144088
    6       -7.651238
    7       -7.006657
    8       -6.832472
    9        1.299014
   10        1.477045
   11        2.105135
   12        2.507159
 
  0.3333333E+00  0.5555556E-01  0.0000000E+00  0.4629630E-02
    1      -21.401791
    2      -19.455826
    3      -12.192405
    4       -9.409554
    5       -8.993191
    6       -8.071651
    7       -7.259223
    8       -7.187395
    9        1.509196
   10        2.024376
   11        2.317070
   12        2.722476
 
  0.3750000E+00  0.5555556E-01  0.0000000E+00  0.4629630E-02
    1      -21.227381
    2      -19.766092
    3      -11.653131
    4       -9.205091
    5       -8.824474
    6       -8.528187
    7       -7.530116
    8       -7.510392
    9        1.747258
   10        2.556932
   11        2.576479
   12        2.966478
 
  0.4166667E+00  0.5555556E-01  0.0000000E+00  0.4629630E-02
    1      -21.032890
    2      -20.057858
    3      -11.112665
    4       -9.013200
    5       -8.977977
    6       -8.638935
    7       -7.857554
    8       -7.756520
    9        2.013119
   10        2.824418
   11        3.125036
   12        3.239145
 
  0.4583333E+00  0.5555556E-01  0.0000000E+00  0.4629630E-02
    1      -20.818481
    2      -20.330717
    3      -10.574310
    4       -9.519771
    5       -8.728808
    6       -8.437781
    7       -8.167503
    8       -7.994686
    9        2.306671
   10        2.976074
   11        3.118716
   12        3.540499
 
  0.5000000E+00  0.5555556E-01  0.0000000E+00  0.2314815E-02
    1      -20.584348
    2      -20.584348
    3      -10.041867
    4      -10.041867
    5       -8.458332
    6       -8.458332
    7       -8.222456
    8       -8.222456
    9        2.627750
   10        2.627750
   11        3.435802
   12        3.435802
 
  0.0000000E+00  0.8333333E-01  0.0000000E+00  0.2314815E-02
    1      -21.995957
    2      -16.662048
    3      -15.789862
    4      -10.110919
    5       -9.920614
    6       -6.420199
    7       -6.027854
    8       -4.800413
    9       -1.184272
   10        0.700659
   11        1.501562
   12        1.894966
 
  0.4166667E-01  0.8333333E-01  0.0000000E+00  0.4629630E-02
    1      -21.985618
    2      -16.850767
    3      -15.586651
    4      -10.098662
    5       -9.909952
    6       -6.459600
    7       -6.046509
    8       -4.871478
    9       -1.099369
   10        0.714694
   11        1.515729
   12        1.909323
 
  0.8333333E-01  0.8333333E-01  0.0000000E+00  0.4629630E-02
    1      -21.954608
    2      -17.209894
    3      -15.184160
    4      -10.061907
    5       -9.877999
    6       -6.571526
    7       -6.106924
    8       -5.066687
    9       -0.862825
   10        0.756797
   11        1.558226
   12        1.952393
 
  0.1250000E+00  0.8333333E-01  0.0000000E+00  0.4629630E-02
    1      -21.902949
    2      -17.597984
    3      -14.724190
    4      -10.000713
    5       -9.824849
    6       -6.743310
    7       -6.216376
    8       -5.347592
    9       -0.513625
   10        0.826968
   11        1.629041
   12        2.024179
 
  0.1666667E+00  0.8333333E-01  0.0000000E+00  0.4629630E-02
    1      -21.830676
    2      -17.984102
    3      -14.238274
    4       -9.915177
    5       -9.750661
    6       -6.963893
    7       -6.377316
    8       -5.678332
    9       -0.088532
   10        0.925200
   11        1.728155
   12        2.124679
 
  0.2083333E+00  0.8333333E-01  0.0000000E+00  0.4629630E-02
    1      -21.737840
    2      -18.359424
    3      -13.736111
    4       -9.805439
    5       -9.655659
    6       -7.226201
    7       -6.585627
    8       -6.033738
    9        0.386041
   10        1.051479
   11        1.855538
   12        2.253892
 
  0.2500000E+00  0.8333333E-01  0.0000000E+00  0.4629630E-02
    1      -21.624507
    2      -18.720425
    3      -13.222395
    4       -9.671689
    5       -9.540136
    6       -7.526983
    7       -6.831686
    8       -6.397775
    9        0.892464
   10        1.205781
   11        2.011149
   12        2.411818
 
  0.2916667E+00  0.8333333E-01  0.0000000E+00  0.4629630E-02
    1      -21.490760
    2      -19.065317
    3      -12.700422
    4       -9.514170
    5       -9.404453
    6       -7.865797
    7       -7.102357
    8       -6.760346
    9        1.388070
   10        1.418707
   11        2.194929
   12        2.598451
 
  0.3333333E+00  0.8333333E-01  0.0000000E+00  0.4629630E-02
    1      -21.336700
    2      -19.393028
    3      -12.173168
    4       -9.333188
    5       -9.249046
    6       -8.243045
    7       -7.383831
    8       -7.114938
    9        1.598302
   10        1.955978
   11        2.406791
   12        2.813786
 
  0.3750000E+00  0.8333333E-01  0.0000000E+00  0.4629630E-02
    1      -21.162445
    2      -19.702834
    3      -11.643728
    4       -9.129124
    5       -9.074423
    6       -8.657645
    7       -7.664603
    8       -7.457200
    9        1.836416
   10        2.497220
   11        2.646601
   12        3.057811
 
  0.4166667E+00  0.8333333E-01  0.0000000E+00  0.4629630E-02
    1      -20.968136
    2      -19.994204
    3      -11.115554
    4       -9.105879
    5       -8.902454
    6       -8.881164
    7       -7.937004
    8       -7.784117
    9        2.102338
   10        2.914101
   11        3.035759
   12        3.330513
 
  0.4583333E+00  0.8333333E-01  0.0000000E+00  0.4629630E-02
    1      -20.753942
    2      -20.266723
    3      -10.592639
    4       -9.582019
    5       -8.669929
    6       -8.653769
    7       -8.196722
    8       -8.093521
    9        2.395969
   10        3.065733
   11        3.208595
   12        3.555878
 
  0.5000000E+00  0.8333333E-01  0.0000000E+00  0.2314815E-02
    1      -20.520060
    2      -20.520060
    3      -10.079649
    4      -10.079649
    5       -8.441472
    6       -8.441472
    7       -8.383811
    8       -8.383811
    9        2.717172
   10        2.717172
   11        3.525850
   12        3.525850
 
  0.0000000E+00  0.1111111E+00  0.0000000E+00  0.2314815E-02
    1      -21.904193
    2      -16.582848
    3      -15.718617
    4      -10.273150
    5      -10.002139
    6       -6.747984
    7       -6.237739
    8       -4.689287
    9       -1.235538
   10        0.825156
   11        1.627635
   12        2.022726
 
  0.4166667E-01  0.1111111E+00  0.0000000E+00  0.4629630E-02
    1      -21.893865
    2      -16.771003
    3      -15.516480
    4      -10.262193
    5       -9.989915
    6       -6.792367
    7       -6.247151
    8       -4.761802
    9       -1.150164
   10        0.839189
   11        1.641792
   12        2.037083
 
  0.8333333E-01  0.1111111E+00  0.0000000E+00  0.4629630E-02
    1      -21.862886
    2      -17.128778
    3      -15.116900
    4      -10.229332
    5       -9.953262
    6       -6.915168
    7       -6.284516
    8       -4.960186
    9       -0.913384
   10        0.881291
   11        1.684258
   12        2.080153
 
  0.1250000E+00  0.1111111E+00  0.0000000E+00  0.4629630E-02
    1      -21.811279
    2      -17.515407
    3      -14.661077
    4      -10.174597
    5       -9.892237
    6       -7.097018
    7       -6.365462
    8       -5.244135
    9       -0.566039
   10        0.951463
   11        1.755022
   12        2.151939
 
  0.1666667E+00  0.1111111E+00  0.0000000E+00  0.4629630E-02
    1      -21.739081
    2      -17.900184
    3      -14.180460
    4      -10.098030
    5       -9.806939
    6       -7.322305
    7       -6.499244
    8       -5.576940
    9       -0.145733
   10        1.049703
   11        1.854064
   12        2.252442
 
  0.2083333E+00  0.1111111E+00  0.0000000E+00  0.4629630E-02
    1      -21.646344
    2      -18.274323
    3      -13.684922
    4       -9.999679
    5       -9.697508
    6       -7.580904
    7       -6.687112
    8       -5.933407
    9        0.321120
   10        1.175999
   11        1.981354
   12        2.381662
 
  0.2500000E+00  0.1111111E+00  0.0000000E+00  0.4629630E-02
    1      -21.533136
    2      -18.634298
    3      -13.179471
    4       -9.879580
    5       -9.564136
    6       -7.866963
    7       -6.923982
    8       -6.297745
    9        0.817187
   10        1.330329
   11        2.136850
   12        2.539597
 
  0.2916667E+00  0.1111111E+00  0.0000000E+00  0.4629630E-02
    1      -21.399542
    2      -18.978305
    3      -12.667851
    4       -9.737739
    5       -9.407064
    6       -8.178110
    7       -7.199990
    8       -6.660107
    9        1.330797
   10        1.512654
   11        2.320497
   12        2.726243
 
  0.3333333E+00  0.1111111E+00  0.0000000E+00  0.4629630E-02
    1      -21.245666
    2      -19.305253
    3      -12.153646
    4       -9.574094
    5       -9.226599
    6       -8.514924
    7       -7.501886
    8       -7.014176
    9        1.722926
   10        1.853550
   11        2.532219
   12        2.941594
 
  0.3750000E+00  0.1111111E+00  0.0000000E+00  0.4629630E-02
    1      -21.071629
    2      -19.614404
    3      -11.640762
    4       -9.388481
    5       -9.023123
    6       -8.879964
    7       -7.814776
    8       -7.355738
    9        1.961083
   10        2.378908
   11        2.771904
   12        3.185642
 
  0.4166667E+00  0.1111111E+00  0.0000000E+00  0.4629630E-02
    1      -20.877579
    2      -19.905210
    3      -11.133702
    4       -9.275866
    5       -9.180605
    6       -8.797106
    7       -8.124577
    8       -7.681866
    9        2.227049
   10        2.901328
   11        3.039366
   12        3.458374
 
  0.4583333E+00  0.1111111E+00  0.0000000E+00  0.4629630E-02
    1      -20.663691
    2      -20.177245
    3      -10.637722
    4       -9.703075
    5       -8.950064
    6       -8.549135
    7       -8.420573
    8       -7.990456
    9        2.520729
   10        3.190697
   11        3.334136
   12        3.414863
 
  0.5000000E+00  0.1111111E+00  0.0000000E+00  0.2314815E-02
    1      -20.430166
    2      -20.430166
    3      -10.158784
    4      -10.158784
    5       -8.696568
    6       -8.696568
    7       -8.279943
    8       -8.279943
    9        2.842002
   10        2.842002
   11        3.651564
   12        3.651564
 
  0.0000000E+00  0.1388889E+00  0.0000000E+00  0.2314815E-02
    1      -21.786365
    2      -16.481072
    3      -15.630207
    4      -10.686415
    5       -9.862682
    6       -7.135874
    7       -6.497462
    8       -4.546650
    9       -1.310505
   10        0.985272
   11        1.789636
   12        2.187000
 
  0.4166667E-01  0.1388889E+00  0.0000000E+00  0.4629630E-02
    1      -21.776049
    2      -16.668773
    3      -15.429294
    4      -10.674964
    5       -9.850503
    6       -7.184445
    7       -6.497764
    8       -4.621299
    9       -1.224308
   10        0.999299
   11        1.803777
   12        2.201356
 
  0.8333333E-01  0.1388889E+00  0.0000000E+00  0.4629630E-02
    1      -21.745111
    2      -17.024942
    3      -15.033679
    4      -10.640579
    5       -9.813988
    6       -7.316477
    7       -6.511731
    8       -4.824271
    9       -0.986869
   10        1.041384
   11        1.846195
   12        2.244424
 
  0.1250000E+00  0.1388889E+00  0.0000000E+00  0.4629630E-02
    1      -21.693572
    2      -17.409690
    3      -14.583833
    4      -10.583164
    5       -9.753193
    6       -7.507298
    7       -6.561959
    8       -5.112495
    9       -0.641785
   10        1.111534
   11        1.916878
   12        2.316207
 
  0.1666667E+00  0.1388889E+00  0.0000000E+00  0.4629630E-02
    1      -21.621473
    2      -17.792699
    3      -14.111081
    4      -10.502532
    5       -9.668219
    6       -7.737990
    7       -6.663388
    8       -5.448103
    9       -0.227785
   10        1.209754
   11        2.015802
   12        2.416707
 
  0.2083333E+00  0.1388889E+00  0.0000000E+00  0.4629630E-02
    1      -21.528864
    2      -18.165272
    3      -13.625618
    4      -10.398375
    5       -9.559207
    6       -7.996508
    7       -6.821788
    8       -5.805941
    9        0.228811
   10        1.336039
   11        2.142936
   12        2.545927
 
  0.2500000E+00  0.1388889E+00  0.0000000E+00  0.4629630E-02
    1      -21.415819
    2      -18.523887
    3      -13.133053
    4      -10.270204
    5       -9.426348
    6       -8.275378
    7       -7.036043
    8       -6.170593
    9        0.711156
   10        1.490368
   11        2.298234
   12        2.703867
 
  0.2916667E+00  0.1388889E+00  0.0000000E+00  0.4629630E-02
    1      -21.282424
    2      -18.866720
    3      -12.637994
    4      -10.117274
    5       -9.269887
    6       -8.570350
    7       -7.299930
    8       -6.532582
    9        1.208113
   10        1.672704
   11        2.481638
   12        2.890522
 
  0.3333333E+00  0.1388889E+00  0.0000000E+00  0.4629630E-02
    1      -21.128787
    2      -19.192660
    3      -12.145208
    4       -9.938500
    5       -9.090131
    6       -8.879891
    7       -7.603394
    8       -6.885864
    9        1.711806
   10        1.882994
   11        2.693072
   12        3.105886
 
  0.3750000E+00  0.1388889E+00  0.0000000E+00  0.4629630E-02
    1      -20.955036
    2      -19.500943
    3      -11.660101
    4       -9.732401
    5       -9.205055
    6       -8.887459
    7       -7.933530
    8       -7.226409
    9        2.121168
   10        2.216256
   11        2.932435
   12        3.349952
 
  0.4166667E+00  0.1388889E+00  0.0000000E+00  0.4629630E-02
    1      -20.761325
    2      -19.791006
    3      -11.188849
    4       -9.549242
    5       -9.497241
    6       -8.662341
    7       -8.275534
    8       -7.551417
    9        2.387146
   10        2.716625
   11        3.199601
   12        3.622708
 
  0.4583333E+00  0.1388889E+00  0.0000000E+00  0.4629630E-02
    1      -20.547835
    2      -20.062405
    3      -10.737982
    4       -9.917241
    5       -9.231620
    6       -8.614130
    7       -8.415357
    8       -7.858861
    9        2.680830
   10        3.208791
   11        3.350805
   12        3.494400
 
  0.5000000E+00  0.1388889E+00  0.0000000E+00  0.2314815E-02
    1      -20.314779
    2      -20.314779
    3      -10.313145
    4      -10.313145
    5       -8.935883
    6       -8.935883
    7       -8.147228
    8       -8.147228
    9        3.002101
   10        3.002101
   11        3.689018
   12        3.689074
 
  0.0000000E+00  0.1666667E+00  0.0000000E+00  0.2314815E-02
    1      -21.642592
    2      -16.356759
    3      -15.528063
    4      -11.139678
    5       -9.692866
    6       -7.568117
    7       -6.800633
    8       -4.372689
    9       -1.415274
   10        1.181009
   11        1.987486
   12        2.387793
 
  0.4166667E-01  0.1666667E+00  0.0000000E+00  0.4629630E-02
    1      -21.632293
    2      -16.544405
    3      -15.328386
    4      -11.127385
    5       -9.680748
    6       -7.620427
    7       -6.791903
    8       -4.450462
    9       -1.327615
   10        1.195024
   11        2.001601
   12        2.402147
 
  0.8333333E-01  0.1666667E+00  0.0000000E+00  0.4629630E-02
    1      -21.601406
    2      -16.898841
    3      -14.938141
    4      -11.090391
    5       -9.644413
    6       -7.760831
    7       -6.782138
    8       -4.659968
    9       -1.088615
   10        1.237076
   11        2.043942
   12        2.445209
 
  0.1250000E+00  0.1666667E+00  0.0000000E+00  0.4629630E-02
    1      -21.549952
    2      -17.281266
    3      -14.496999
    4      -11.028338
    5       -9.583920
    6       -7.960181
    7       -6.799921
    8       -4.954031
    9       -0.745935
   10        1.307176
   11        2.114491
   12        2.516982
 
  0.1666667E+00  0.1666667E+00  0.0000000E+00  0.4629630E-02
    1      -21.477973
    2      -17.662034
    3      -14.036140
    4      -10.940563
    5       -9.499370
    6       -8.196891
    7       -6.865124
    8       -5.293286
    9       -0.339721
   10        1.405338
   11        2.213220
   12        2.617473
 
  0.2083333E+00  0.1666667E+00  0.0000000E+00  0.4629630E-02
    1      -21.385524
    2      -18.032607
    3      -13.566424
    4      -10.826006
    5       -9.390908
    6       -8.457594
    7       -6.987499
    8       -5.652767
    9        0.104029
   10        1.531567
   11        2.340084
   12        2.746684
 
  0.2500000E+00  0.1666667E+00  0.0000000E+00  0.4629630E-02
    1      -21.272680
    2      -18.389480
    3      -13.094641
    4      -10.683075
    5       -9.258726
    6       -8.733912
    7       -7.169426
    8       -6.017655
    9        0.569258
   10        1.685852
   11        2.495021
   12        2.904619
 
  0.2916667E+00  0.1666667E+00  0.0000000E+00  0.4629630E-02
    1      -21.139532
    2      -18.730815
    3      -12.627060
    4      -10.509517
    5       -9.103072
    6       -9.020564
    7       -7.407857
    8       -6.378988
    9        1.045628
   10        1.868158
   11        2.677940
   12        3.091275
 
  0.3333333E+00  0.1666667E+00  0.0000000E+00  0.4629630E-02
    1      -20.986194
    2      -19.055470
    3      -12.170465
    4      -10.302425
    5       -9.314543
    6       -8.924252
    7       -7.695686
    8       -6.731096
    9        1.526004
   10        2.078427
   11        2.888709
   12        3.306648
 
  0.3750000E+00  0.1666667E+00  0.0000000E+00  0.4629630E-02
    1      -20.812801
    2      -19.362654
    3      -11.732106
    4      -10.058719
    5       -9.614866
    6       -8.722648
    7       -8.022832
    8       -7.070195
    9        2.005098
   10        2.316583
   11        3.127092
   12        3.550726
 
  0.4166667E+00  0.1666667E+00  0.0000000E+00  0.4629630E-02
    1      -20.619515
    2      -19.651775
    3      -11.318545
    4       -9.922639
    5       -9.776568
    6       -8.498727
    7       -8.377026
    8       -7.393644
    9        2.478725
   10        2.582534
   11        3.392452
   12        3.823500
 
  0.4583333E+00  0.1666667E+00  0.0000000E+00  0.4629630E-02
    1      -20.406526
    2      -19.922369
    3      -10.933485
    4      -10.241211
    5       -9.457742
    6       -8.744298
    7       -8.253063
    8       -7.699517
    9        2.876173
   10        2.943276
   11        3.545972
   12        3.675589
 
  0.5000000E+00  0.1666667E+00  0.0000000E+00  0.2314815E-02
    1      -20.174057
    2      -20.174057
    3      -10.576023
    4      -10.576023
    5       -9.109527
    6       -9.109527
    7       -7.986364
    8       -7.986364
    9        3.197370
   10        3.197370
   11        3.394611
   12        3.394611
 