<?xml version="1.0" encoding="ISO-8859-1"?>
<modeling>
 <generator>
  <i name="program" type="string">vasp </i>
  <i name="version" type="string">5.3.5  </i>
  <i name="subversion" type="string">31Mar14 (build Mar 02 2015 18:14:16) complex                          parallel </i>
  <i name="platform" type="string">LinuxIFC </i>
  <i name="date" type="string">2018 08 09 </i>
  <i name="time" type="string">21:00:42 </i>
 </generator>
 <incar>
  <i type="string" name="SYSTEM">  gr</i>
  <i type="string" name="PREC">accurate : accuracy</i>
  <i type="string" name="ALGO"> FAST.</i>
  <i type="int" name="NELM">   100</i>
  <i type="int" name="NELMDL">    -3</i>
  <i type="int" name="NELMIN">     5</i>
  <i type="int" name="IBRION">     1</i>
  <i name="EDIFF">      0.00000000</i>
  <i name="EDIFFG">     -0.00000100</i>
  <i type="int" name="NSW">   400</i>
  <i type="int" name="ISIF">     2</i>
  <i name="ENCUT">   2000.00000000</i>
  <i type="int" name="ISMEAR">     0</i>
  <i name="SIGMA">      0.05000000</i>
  <i type="int" name="NWRITE">     2</i>
  <i type="logical" name="LWAVE"> F  </i>
  <i type="logical" name="LCHARG"> F  </i>
  <i type="int" name="NELM">   100</i>
 </incar>
 <kpoints>
  <generation param="Gamma">
   <v type="int" name="divisions">      24       36        1 </v>
   <v name="usershift">      0.00000000       0.00000000       0.00000000 </v>
   <v name="genvec1">      0.04166667       0.00000000       0.00000000 </v>
   <v name="genvec2">      0.00000000       0.02777778       0.00000000 </v>
   <v name="genvec3">      0.00000000       0.00000000       1.00000000 </v>
   <v name="shift">      0.00000000       0.00000000       0.00000000 </v>
  </generation>
  <varray name="kpointlist" >
   <v>       0.00000000       0.00000000       0.00000000 </v>
   <v>       0.04166667       0.00000000       0.00000000 </v>
   <v>       0.08333333       0.00000000       0.00000000 </v>
   <v>       0.12500000       0.00000000       0.00000000 </v>
   <v>       0.16666667       0.00000000       0.00000000 </v>
   <v>       0.20833333       0.00000000       0.00000000 </v>
   <v>       0.25000000       0.00000000       0.00000000 </v>
   <v>       0.29166667       0.00000000       0.00000000 </v>
   <v>       0.33333333       0.00000000       0.00000000 </v>
   <v>       0.37500000       0.00000000       0.00000000 </v>
   <v>       0.41666667       0.00000000       0.00000000 </v>
   <v>       0.45833333       0.00000000       0.00000000 </v>
   <v>       0.50000000       0.00000000       0.00000000 </v>
   <v>       0.00000000       0.02777778       0.00000000 </v>
   <v>       0.04166667       0.02777778       0.00000000 </v>
   <v>       0.08333333       0.02777778       0.00000000 </v>
   <v>       0.12500000       0.02777778       0.00000000 </v>
   <v>       0.16666667       0.02777778       0.00000000 </v>
   <v>       0.20833333       0.02777778       0.00000000 </v>
   <v>       0.25000000       0.02777778       0.00000000 </v>
   <v>       0.29166667       0.02777778       0.00000000 </v>
   <v>       0.33333333       0.02777778       0.00000000 </v>
   <v>       0.37500000       0.02777778       0.00000000 </v>
   <v>       0.41666667       0.02777778       0.00000000 </v>
   <v>       0.45833333       0.02777778       0.00000000 </v>
   <v>       0.50000000       0.02777778       0.00000000 </v>
   <v>       0.00000000       0.05555556       0.00000000 </v>
   <v>       0.04166667       0.05555556       0.00000000 </v>
   <v>       0.08333333       0.05555556       0.00000000 </v>
   <v>       0.12500000       0.05555556       0.00000000 </v>
   <v>       0.16666667       0.05555556       0.00000000 </v>
   <v>       0.20833333       0.05555556       0.00000000 </v>
   <v>       0.25000000       0.05555556       0.00000000 </v>
   <v>       0.29166667       0.05555556       0.00000000 </v>
   <v>       0.33333333       0.05555556       0.00000000 </v>
   <v>       0.37500000       0.05555556       0.00000000 </v>
   <v>       0.41666667       0.05555556       0.00000000 </v>
   <v>       0.45833333       0.05555556       0.00000000 </v>
   <v>       0.50000000       0.05555556       0.00000000 </v>
   <v>       0.00000000       0.08333333       0.00000000 </v>
   <v>       0.04166667       0.08333333       0.00000000 </v>
   <v>       0.08333333       0.08333333       0.00000000 </v>
   <v>       0.12500000       0.08333333       0.00000000 </v>
   <v>       0.16666667       0.08333333       0.00000000 </v>
   <v>       0.20833333       0.08333333       0.00000000 </v>
   <v>       0.25000000       0.08333333       0.00000000 </v>
   <v>       0.29166667       0.08333333       0.00000000 </v>
   <v>       0.33333333       0.08333333       0.00000000 </v>
   <v>       0.37500000       0.08333333       0.00000000 </v>
   <v>       0.41666667       0.08333333       0.00000000 </v>
   <v>       0.45833333       0.08333333       0.00000000 </v>
   <v>       0.50000000       0.08333333       0.00000000 </v>
   <v>       0.00000000       0.11111111       0.00000000 </v>
   <v>       0.04166667       0.11111111       0.00000000 </v>
   <v>       0.08333333       0.11111111       0.00000000 </v>
   <v>       0.12500000       0.11111111       0.00000000 </v>
   <v>       0.16666667       0.11111111       0.00000000 </v>
   <v>       0.20833333       0.11111111       0.00000000 </v>
   <v>       0.25000000       0.11111111       0.00000000 </v>
   <v>       0.29166667       0.11111111       0.00000000 </v>
   <v>       0.33333333       0.11111111       0.00000000 </v>
   <v>       0.37500000       0.11111111       0.00000000 </v>
   <v>       0.41666667       0.11111111       0.00000000 </v>
   <v>       0.45833333       0.11111111       0.00000000 </v>
   <v>       0.50000000       0.11111111       0.00000000 </v>
   <v>       0.00000000       0.13888889       0.00000000 </v>
   <v>       0.04166667       0.13888889       0.00000000 </v>
   <v>       0.08333333       0.13888889       0.00000000 </v>
   <v>       0.12500000       0.13888889       0.00000000 </v>
   <v>       0.16666667       0.13888889       0.00000000 </v>
   <v>       0.20833333       0.13888889       0.00000000 </v>
   <v>       0.25000000       0.13888889       0.00000000 </v>
   <v>       0.29166667       0.13888889       0.00000000 </v>
   <v>       0.33333333       0.13888889       0.00000000 </v>
   <v>       0.37500000       0.13888889       0.00000000 </v>
   <v>       0.41666667       0.13888889       0.00000000 </v>
   <v>       0.45833333       0.13888889       0.00000000 </v>
   <v>       0.50000000       0.13888889       0.00000000 </v>
   <v>       0.00000000       0.16666667       0.00000000 </v>
   <v>       0.04166667       0.16666667       0.00000000 </v>
   <v>       0.08333333       0.16666667       0.00000000 </v>
   <v>       0.12500000       0.16666667       0.00000000 </v>
   <v>       0.16666667       0.16666667       0.00000000 </v>
   <v>       0.20833333       0.16666667       0.00000000 </v>
   <v>       0.25000000       0.16666667       0.00000000 </v>
   <v>       0.29166667       0.16666667       0.00000000 </v>
   <v>       0.33333333       0.16666667       0.00000000 </v>
   <v>       0.37500000       0.16666667       0.00000000 </v>
   <v>       0.41666667       0.16666667       0.00000000 </v>
   <v>       0.45833333       0.16666667       0.00000000 </v>
   <v>       0.50000000       0.16666667       0.00000000 </v>
   <v>       0.00000000       0.19444444       0.00000000 </v>
   <v>       0.04166667       0.19444444       0.00000000 </v>
   <v>       0.08333333       0.19444444       0.00000000 </v>
   <v>       0.12500000       0.19444444       0.00000000 </v>
   <v>       0.16666667       0.19444444       0.00000000 </v>
   <v>       0.20833333       0.19444444       0.00000000 </v>
   <v>       0.25000000       0.19444444       0.00000000 </v>
   <v>       0.29166667       0.19444444       0.00000000 </v>
   <v>       0.33333333       0.19444444       0.00000000 </v>
   <v>       0.37500000       0.19444444       0.00000000 </v>
   <v>       0.41666667       0.19444444       0.00000000 </v>
   <v>       0.45833333       0.19444444       0.00000000 </v>
   <v>       0.50000000       0.19444444       0.00000000 </v>
   <v>       0.00000000       0.22222222       0.00000000 </v>
   <v>       0.04166667       0.22222222       0.00000000 </v>
   <v>       0.08333333       0.22222222       0.00000000 </v>
   <v>       0.12500000       0.22222222       0.00000000 </v>
   <v>       0.16666667       0.22222222       0.00000000 </v>
   <v>       0.20833333       0.22222222       0.00000000 </v>
   <v>       0.25000000       0.22222222       0.00000000 </v>
   <v>       0.29166667       0.22222222       0.00000000 </v>
   <v>       0.33333333       0.22222222       0.00000000 </v>
   <v>       0.37500000       0.22222222       0.00000000 </v>
   <v>       0.41666667       0.22222222       0.00000000 </v>
   <v>       0.45833333       0.22222222       0.00000000 </v>
   <v>       0.50000000       0.22222222       0.00000000 </v>
   <v>       0.00000000       0.25000000       0.00000000 </v>
   <v>       0.04166667       0.25000000       0.00000000 </v>
   <v>       0.08333333       0.25000000       0.00000000 </v>
   <v>       0.12500000       0.25000000       0.00000000 </v>
   <v>       0.16666667       0.25000000       0.00000000 </v>
   <v>       0.20833333       0.25000000       0.00000000 </v>
   <v>       0.25000000       0.25000000       0.00000000 </v>
   <v>       0.29166667       0.25000000       0.00000000 </v>
   <v>       0.33333333       0.25000000       0.00000000 </v>
   <v>       0.37500000       0.25000000       0.00000000 </v>
   <v>       0.41666667       0.25000000       0.00000000 </v>
   <v>       0.45833333       0.25000000       0.00000000 </v>
   <v>       0.50000000       0.25000000       0.00000000 </v>
   <v>       0.00000000       0.27777778       0.00000000 </v>
   <v>       0.04166667       0.27777778       0.00000000 </v>
   <v>       0.08333333       0.27777778       0.00000000 </v>
   <v>       0.12500000       0.27777778       0.00000000 </v>
   <v>       0.16666667       0.27777778       0.00000000 </v>
   <v>       0.20833333       0.27777778       0.00000000 </v>
   <v>       0.25000000       0.27777778       0.00000000 </v>
   <v>       0.29166667       0.27777778       0.00000000 </v>
   <v>       0.33333333       0.27777778       0.00000000 </v>
   <v>       0.37500000       0.27777778       0.00000000 </v>
   <v>       0.41666667       0.27777778       0.00000000 </v>
   <v>       0.45833333       0.27777778       0.00000000 </v>
   <v>       0.50000000       0.27777778       0.00000000 </v>
   <v>       0.00000000       0.30555556       0.00000000 </v>
   <v>       0.04166667       0.30555556       0.00000000 </v>
   <v>       0.08333333       0.30555556       0.00000000 </v>
   <v>       0.12500000       0.30555556       0.00000000 </v>
   <v>       0.16666667       0.30555556       0.00000000 </v>
   <v>       0.20833333       0.30555556       0.00000000 </v>
   <v>       0.25000000       0.30555556       0.00000000 </v>
   <v>       0.29166667       0.30555556       0.00000000 </v>
   <v>       0.33333333       0.30555556       0.00000000 </v>
   <v>       0.37500000       0.30555556       0.00000000 </v>
   <v>       0.41666667       0.30555556       0.00000000 </v>
   <v>       0.45833333       0.30555556       0.00000000 </v>
   <v>       0.50000000       0.30555556       0.00000000 </v>
   <v>       0.00000000       0.33333333       0.00000000 </v>
   <v>       0.04166667       0.33333333       0.00000000 </v>
   <v>       0.08333333       0.33333333       0.00000000 </v>
   <v>       0.12500000       0.33333333       0.00000000 </v>
   <v>       0.16666667       0.33333333       0.00000000 </v>
   <v>       0.20833333       0.33333333       0.00000000 </v>
   <v>       0.25000000       0.33333333       0.00000000 </v>
   <v>       0.29166667       0.33333333       0.00000000 </v>
   <v>       0.33333333       0.33333333       0.00000000 </v>
   <v>       0.37500000       0.33333333       0.00000000 </v>
   <v>       0.41666667       0.33333333       0.00000000 </v>
   <v>       0.45833333       0.33333333       0.00000000 </v>
   <v>       0.50000000       0.33333333       0.00000000 </v>
   <v>       0.00000000       0.36111111       0.00000000 </v>
   <v>       0.04166667       0.36111111       0.00000000 </v>
   <v>       0.08333333       0.36111111       0.00000000 </v>
   <v>       0.12500000       0.36111111       0.00000000 </v>
   <v>       0.16666667       0.36111111       0.00000000 </v>
   <v>       0.20833333       0.36111111       0.00000000 </v>
   <v>       0.25000000       0.36111111       0.00000000 </v>
   <v>       0.29166667       0.36111111       0.00000000 </v>
   <v>       0.33333333       0.36111111       0.00000000 </v>
   <v>       0.37500000       0.36111111       0.00000000 </v>
   <v>       0.41666667       0.36111111       0.00000000 </v>
   <v>       0.45833333       0.36111111       0.00000000 </v>
   <v>       0.50000000       0.36111111       0.00000000 </v>
   <v>       0.00000000       0.38888889       0.00000000 </v>
   <v>       0.04166667       0.38888889       0.00000000 </v>
   <v>       0.08333333       0.38888889       0.00000000 </v>
   <v>       0.12500000       0.38888889       0.00000000 </v>
   <v>       0.16666667       0.38888889       0.00000000 </v>
   <v>       0.20833333       0.38888889       0.00000000 </v>
   <v>       0.25000000       0.38888889       0.00000000 </v>
   <v>       0.29166667       0.38888889       0.00000000 </v>
   <v>       0.33333333       0.38888889       0.00000000 </v>
   <v>       0.37500000       0.38888889       0.00000000 </v>
   <v>       0.41666667       0.38888889       0.00000000 </v>
   <v>       0.45833333       0.38888889       0.00000000 </v>
   <v>       0.50000000       0.38888889       0.00000000 </v>
   <v>       0.00000000       0.41666667       0.00000000 </v>
   <v>       0.04166667       0.41666667       0.00000000 </v>
   <v>       0.08333333       0.41666667       0.00000000 </v>
   <v>       0.12500000       0.41666667       0.00000000 </v>
   <v>       0.16666667       0.41666667       0.00000000 </v>
   <v>       0.20833333       0.41666667       0.00000000 </v>
   <v>       0.25000000       0.41666667       0.00000000 </v>
   <v>       0.29166667       0.41666667       0.00000000 </v>
   <v>       0.33333333       0.41666667       0.00000000 </v>
   <v>       0.37500000       0.41666667       0.00000000 </v>
   <v>       0.41666667       0.41666667       0.00000000 </v>
   <v>       0.45833333       0.41666667       0.00000000 </v>
   <v>       0.50000000       0.41666667       0.00000000 </v>
   <v>       0.00000000       0.44444444       0.00000000 </v>
   <v>       0.04166667       0.44444444       0.00000000 </v>
   <v>       0.08333333       0.44444444       0.00000000 </v>
   <v>       0.12500000       0.44444444       0.00000000 </v>
   <v>       0.16666667       0.44444444       0.00000000 </v>
   <v>       0.20833333       0.44444444       0.00000000 </v>
   <v>       0.25000000       0.44444444       0.00000000 </v>
   <v>       0.29166667       0.44444444       0.00000000 </v>
   <v>       0.33333333       0.44444444       0.00000000 </v>
   <v>       0.37500000       0.44444444       0.00000000 </v>
   <v>       0.41666667       0.44444444       0.00000000 </v>
   <v>       0.45833333       0.44444444       0.00000000 </v>
   <v>       0.50000000       0.44444444       0.00000000 </v>
   <v>       0.00000000       0.47222222       0.00000000 </v>
   <v>       0.04166667       0.47222222       0.00000000 </v>
   <v>       0.08333333       0.47222222       0.00000000 </v>
   <v>       0.12500000       0.47222222       0.00000000 </v>
   <v>       0.16666667       0.47222222       0.00000000 </v>
   <v>       0.20833333       0.47222222       0.00000000 </v>
   <v>       0.25000000       0.47222222       0.00000000 </v>
   <v>       0.29166667       0.47222222       0.00000000 </v>
   <v>       0.33333333       0.47222222       0.00000000 </v>
   <v>       0.37500000       0.47222222       0.00000000 </v>
   <v>       0.41666667       0.47222222       0.00000000 </v>
   <v>       0.45833333       0.47222222       0.00000000 </v>
   <v>       0.50000000       0.47222222       0.00000000 </v>
   <v>       0.00000000       0.50000000       0.00000000 </v>
   <v>       0.04166667       0.50000000       0.00000000 </v>
   <v>       0.08333333       0.50000000       0.00000000 </v>
   <v>       0.12500000       0.50000000       0.00000000 </v>
   <v>       0.16666667       0.50000000       0.00000000 </v>
   <v>       0.20833333       0.50000000       0.00000000 </v>
   <v>       0.25000000       0.50000000       0.00000000 </v>
   <v>       0.29166667       0.50000000       0.00000000 </v>
   <v>       0.33333333       0.50000000       0.00000000 </v>
   <v>       0.37500000       0.50000000       0.00000000 </v>
   <v>       0.41666667       0.50000000       0.00000000 </v>
   <v>       0.45833333       0.50000000       0.00000000 </v>
   <v>       0.50000000       0.50000000       0.00000000 </v>
  </varray>
  <varray name="weights" >
   <v>       0.00115741 </v>
   <v>       0.00231481 </v>
   <v>       0.00231481 </v>
   <v>       0.00231481 </v>
   <v>       0.00231481 </v>
   <v>       0.00231481 </v>
   <v>       0.00231481 </v>
   <v>       0.00231481 </v>
   <v>       0.00231481 </v>
   <v>       0.00231481 </v>
   <v>       0.00231481 </v>
   <v>       0.00231481 </v>
   <v>       0.00115741 </v>
   <v>       0.00231481 </v>
   <v>       0.00462963 </v>
   <v>       0.00462963 </v>
   <v>       0.00462963 </v>
   <v>       0.00462963 </v>
   <v>       0.00462963 </v>
   <v>       0.00462963 </v>
   <v>       0.00462963 </v>
   <v>       0.00462963 </v>
   <v>       0.00462963 </v>
   <v>       0.00462963 </v>
   <v>       0.00462963 </v>
   <v>       0.00231481 </v>
   <v>       0.00231481 </v>
   <v>       0.00462963 </v>
   <v>       0.00462963 </v>
   <v>       0.00462963 </v>
   <v>       0.00462963 </v>
   <v>       0.00462963 </v>
   <v>       0.00462963 </v>
   <v>       0.00462963 </v>
   <v>       0.00462963 </v>
   <v>       0.00462963 </v>
   <v>       0.00462963 </v>
   <v>       0.00462963 </v>
   <v>       0.00231481 </v>
   <v>       0.00231481 </v>
   <v>       0.00462963 </v>
   <v>       0.00462963 </v>
   <v>       0.00462963 </v>
   <v>       0.00462963 </v>
   <v>       0.00462963 </v>
   <v>       0.00462963 </v>
   <v>       0.00462963 </v>
   <v>       0.00462963 </v>
   <v>       0.00462963 </v>
   <v>       0.00462963 </v>
   <v>       0.00462963 </v>
   <v>       0.00231481 </v>
   <v>       0.00231481 </v>
   <v>       0.00462963 </v>
   <v>       0.00462963 </v>
   <v>       0.00462963 </v>
   <v>       0.00462963 </v>
   <v>       0.00462963 </v>
   <v>       0.00462963 </v>
   <v>       0.00462963 </v>
   <v>       0.00462963 </v>
   <v>       0.00462963 </v>
   <v>       0.00462963 </v>
   <v>       0.00462963 </v>
   <v>       0.00231481 </v>
   <v>       0.00231481 </v>
   <v>       0.00462963 </v>
   <v>       0.00462963 </v>
   <v>       0.00462963 </v>
   <v>       0.00462963 </v>
   <v>       0.00462963 </v>
   <v>       0.00462963 </v>
   <v>       0.00462963 </v>
   <v>       0.00462963 </v>
   <v>       0.00462963 </v>
   <v>       0.00462963 </v>
   <v>       0.00462963 </v>
   <v>       0.00231481 </v>
   <v>       0.00231481 </v>
   <v>       0.00462963 </v>
   <v>       0.00462963 </v>
   <v>       0.00462963 </v>
   <v>       0.00462963 </v>
   <v>       0.00462963 </v>
   <v>       0.00462963 </v>
   <v>       0.00462963 </v>
   <v>       0.00462963 </v>
   <v>       0.00462963 </v>
   <v>       0.00462963 </v>
   <v>       0.00462963 </v>
   <v>       0.00231481 </v>
   <v>       0.00231481 </v>
   <v>       0.00462963 </v>
   <v>       0.00462963 </v>
   <v>       0.00462963 </v>
   <v>       0.00462963 </v>
   <v>       0.00462963 </v>
   <v>       0.00462963 </v>
   <v>       0.00462963 </v>
   <v>       0.00462963 </v>
   <v>       0.00462963 </v>
   <v>       0.00462963 </v>
   <v>       0.00462963 </v>
   <v>       0.00231481 </v>
   <v>       0.00231481 </v>
   <v>       0.00462963 </v>
   <v>       0.00462963 </v>
   <v>       0.00462963 </v>
   <v>       0.00462963 </v>
   <v>       0.00462963 </v>
   <v>       0.00462963 </v>
   <v>       0.00462963 </v>
   <v>       0.00462963 </v>
   <v>       0.00462963 </v>
   <v>       0.00462963 </v>
   <v>       0.00462963 </v>
   <v>       0.00231481 </v>
   <v>       0.00231481 </v>
   <v>       0.00462963 </v>
   <v>       0.00462963 </v>
   <v>       0.00462963 </v>
   <v>       0.00462963 </v>
   <v>       0.00462963 </v>
   <v>       0.00462963 </v>
   <v>       0.00462963 </v>
   <v>       0.00462963 </v>
   <v>       0.00462963 </v>
   <v>       0.00462963 </v>
   <v>       0.00462963 </v>
   <v>       0.00231481 </v>
   <v>       0.00231481 </v>
   <v>       0.00462963 </v>
   <v>       0.00462963 </v>
   <v>       0.00462963 </v>
   <v>       0.00462963 </v>
   <v>       0.00462963 </v>
   <v>       0.00462963 </v>
   <v>       0.00462963 </v>
   <v>       0.00462963 </v>
   <v>       0.00462963 </v>
   <v>       0.00462963 </v>
   <v>       0.00462963 </v>
   <v>       0.00231481 </v>
   <v>       0.00231481 </v>
   <v>       0.00462963 </v>
   <v>       0.00462963 </v>
   <v>       0.00462963 </v>
   <v>       0.00462963 </v>
   <v>       0.00462963 </v>
   <v>       0.00462963 </v>
   <v>       0.00462963 </v>
   <v>       0.00462963 </v>
   <v>       0.00462963 </v>
   <v>       0.00462963 </v>
   <v>       0.00462963 </v>
   <v>       0.00231481 </v>
   <v>       0.00231481 </v>
   <v>       0.00462963 </v>
   <v>       0.00462963 </v>
   <v>       0.00462963 </v>
   <v>       0.00462963 </v>
   <v>       0.00462963 </v>
   <v>       0.00462963 </v>
   <v>       0.00462963 </v>
   <v>       0.00462963 </v>
   <v>       0.00462963 </v>
   <v>       0.00462963 </v>
   <v>       0.00462963 </v>
   <v>       0.00231481 </v>
   <v>       0.00231481 </v>
   <v>       0.00462963 </v>
   <v>       0.00462963 </v>
   <v>       0.00462963 </v>
   <v>       0.00462963 </v>
   <v>       0.00462963 </v>
   <v>       0.00462963 </v>
   <v>       0.00462963 </v>
   <v>       0.00462963 </v>
   <v>       0.00462963 </v>
   <v>       0.00462963 </v>
   <v>       0.00462963 </v>
   <v>       0.00231481 </v>
   <v>       0.00231481 </v>
   <v>       0.00462963 </v>
   <v>       0.00462963 </v>
   <v>       0.00462963 </v>
   <v>       0.00462963 </v>
   <v>       0.00462963 </v>
   <v>       0.00462963 </v>
   <v>       0.00462963 </v>
   <v>       0.00462963 </v>
   <v>       0.00462963 </v>
   <v>       0.00462963 </v>
   <v>       0.00462963 </v>
   <v>       0.00231481 </v>
   <v>       0.00231481 </v>
   <v>       0.00462963 </v>
   <v>       0.00462963 </v>
   <v>       0.00462963 </v>
   <v>       0.00462963 </v>
   <v>       0.00462963 </v>
   <v>       0.00462963 </v>
   <v>       0.00462963 </v>
   <v>       0.00462963 </v>
   <v>       0.00462963 </v>
   <v>       0.00462963 </v>
   <v>       0.00462963 </v>
   <v>       0.00231481 </v>
   <v>       0.00231481 </v>
   <v>       0.00462963 </v>
   <v>       0.00462963 </v>
   <v>       0.00462963 </v>
   <v>       0.00462963 </v>
   <v>       0.00462963 </v>
   <v>       0.00462963 </v>
   <v>       0.00462963 </v>
   <v>       0.00462963 </v>
   <v>       0.00462963 </v>
   <v>       0.00462963 </v>
   <v>       0.00462963 </v>
   <v>       0.00231481 </v>
   <v>       0.00231481 </v>
   <v>       0.00462963 </v>
   <v>       0.00462963 </v>
   <v>       0.00462963 </v>
   <v>       0.00462963 </v>
   <v>       0.00462963 </v>
   <v>       0.00462963 </v>
   <v>       0.00462963 </v>
   <v>       0.00462963 </v>
   <v>       0.00462963 </v>
   <v>       0.00462963 </v>
   <v>       0.00462963 </v>
   <v>       0.00231481 </v>
   <v>       0.00115741 </v>
   <v>       0.00231481 </v>
   <v>       0.00231481 </v>
   <v>       0.00231481 </v>
   <v>       0.00231481 </v>
   <v>       0.00231481 </v>
   <v>       0.00231481 </v>
   <v>       0.00231481 </v>
   <v>       0.00231481 </v>
   <v>       0.00231481 </v>
   <v>       0.00231481 </v>
   <v>       0.00231481 </v>
   <v>       0.00115741 </v>
  </varray>
 </kpoints>
 <parameters>
  <separator name="general" >
   <i type="string" name="SYSTEM">gr</i>
   <i type="logical" name="LCOMPAT"> F  </i>
  </separator>
  <separator name="electronic" >
   <i type="string" name="PREC">accura</i>
   <i name="ENMAX">   2000.00000000</i>
   <i name="ENAUG">    644.87300000</i>
   <i name="EDIFF">      0.00000000</i>
   <i type="int" name="IALGO">    68</i>
   <i type="int" name="IWAVPR">    11</i>
   <i type="int" name="NBANDS">    12</i>
   <i name="NELECT">     16.00000000</i>
   <i type="int" name="TURBO">     0</i>
   <i type="int" name="IRESTART">     0</i>
   <i type="int" name="NREBOOT">     0</i>
   <i type="int" name="NMIN">     0</i>
   <i name="EREF">      0.00000000</i>
   <separator name="electronic smearing" >
    <i type="int" name="ISMEAR">     0</i>
    <i name="SIGMA">      0.05000000</i>
    <i name="KSPACING">      0.50000000</i>
    <i type="logical" name="KGAMMA"> T  </i>
   </separator>
   <separator name="electronic projectors" >
    <i type="logical" name="LREAL"> F  </i>
    <v name="ROPT">      0.00000000</v>
    <i type="int" name="LMAXPAW">  -100</i>
    <i type="int" name="LMAXMIX">     2</i>
    <i type="logical" name="NLSPLINE"> F  </i>
   </separator>
   <separator name="electronic startup" >
    <i type="int" name="ISTART">     0</i>
    <i type="int" name="ICHARG">     2</i>
    <i type="int" name="INIWAV">     1</i>
   </separator>
   <separator name="electronic spin" >
    <i type="int" name="ISPIN">     1</i>
    <i type="logical" name="LNONCOLLINEAR"> F  </i>
    <v name="MAGMOM">      1.00000000      1.00000000      1.00000000      1.00000000</v>
    <i name="NUPDOWN">     -1.00000000</i>
    <i type="logical" name="LSORBIT"> F  </i>
    <v name="SAXIS">      0.00000000      0.00000000      1.00000000</v>
    <i type="logical" name="LSPIRAL"> F  </i>
    <v name="QSPIRAL">      0.00000000      0.00000000      0.00000000</v>
    <i type="logical" name="LZEROZ"> F  </i>
   </separator>
   <separator name="electronic exchange-correlation" >
    <i type="logical" name="LASPH"> F  </i>
    <i type="logical" name="LMETAGGA"> F  </i>
   </separator>
   <separator name="electronic convergence" >
    <i type="int" name="NELM">   100</i>
    <i type="int" name="NELMDL">    -3</i>
    <i type="int" name="NELMIN">     5</i>
    <i name="ENINI">   2000.00000000</i>
    <separator name="electronic convergence detail" >
     <i type="logical" name="LDIAG"> T  </i>
     <i type="logical" name="LSUBROT"> F  </i>
     <i name="WEIMIN">      0.00100000</i>
     <i name="EBREAK">      0.00000000</i>
     <i name="DEPER">      0.30000000</i>
     <i type="int" name="NRMM">     4</i>
     <i name="TIME">      0.40000000</i>
    </separator>
   </separator>
   <separator name="electronic mixer" >
    <i name="AMIX">      0.40000000</i>
    <i name="BMIX">      1.00000000</i>
    <i name="AMIN">      0.10000000</i>
    <i name="AMIX_MAG">      1.60000000</i>
    <i name="BMIX_MAG">      1.00000000</i>
    <separator name="electronic mixer details" >
     <i type="int" name="IMIX">     4</i>
     <i type="int" name="MAXMIX">   -45</i>
     <i name="WC">    100.00000000</i>
     <i type="int" name="INIMIX">     1</i>
     <i type="int" name="MIXPRE">     1</i>
     <i type="int" name="MREMOVE">     5</i>
    </separator>
   </separator>
   <separator name="electronic dipolcorrection" >
    <i type="logical" name="LDIPOL"> F  </i>
    <i type="logical" name="LMONO"> F  </i>
    <i type="int" name="IDIPOL">     0</i>
    <i name="EPSILON">      1.00000000</i>
    <v name="DIPOL">   -100.00000000   -100.00000000   -100.00000000</v>
    <i name="EFIELD">      0.00000000</i>
   </separator>
  </separator>
  <separator name="grids" >
   <i type="int" name="NGX">    64</i>
   <i type="int" name="NGY">    40</i>
   <i type="int" name="NGZ">   288</i>
   <i type="int" name="NGXF">   128</i>
   <i type="int" name="NGYF">    80</i>
   <i type="int" name="NGZF">   576</i>
   <i type="logical" name="ADDGRID"> F  </i>
  </separator>
  <separator name="ionic" >
   <i type="int" name="NSW">   400</i>
   <i type="int" name="IBRION">     1</i>
   <i type="int" name="ISIF">     2</i>
   <i name="PSTRESS">      0.00000000</i>
   <i name="EDIFFG">     -0.00000100</i>
   <i type="int" name="NFREE">     0</i>
   <i name="POTIM">      0.50000000</i>
   <i name="SMASS">     -3.00000000</i>
   <i name="SCALEE">      1.00000000</i>
  </separator>
  <separator name="ionic md" >
   <i name="TEBEG">      0.00010000</i>
   <i name="TEEND">      0.00010000</i>
   <i type="int" name="NBLOCK">     1</i>
   <i type="int" name="KBLOCK">   400</i>
   <i type="int" name="NPACO">   256</i>
   <i name="APACO">     16.00000000</i>
  </separator>
  <separator name="symmetry" >
   <i type="int" name="ISYM">     2</i>
   <i name="SYMPREC">      0.00001000</i>
  </separator>
  <separator name="dos" >
   <i type="logical" name="LORBIT"> F  </i>
   <v name="RWIGS">     -1.00000000</v>
   <i type="int" name="NEDOS">   301</i>
   <i name="EMIN">     10.00000000</i>
   <i name="EMAX">    -10.00000000</i>
   <i name="EFERMI">      0.00000000</i>
  </separator>
  <separator name="writing" >
   <i type="int" name="NWRITE">     2</i>
   <i type="logical" name="LWAVE"> F  </i>
   <i type="logical" name="LCHARG"> F  </i>
   <i type="logical" name="LPARD"> F  </i>
   <i type="logical" name="LVTOT"> F  </i>
   <i type="logical" name="LVHAR"> F  </i>
   <i type="logical" name="LELF"> F  </i>
   <i type="logical" name="LOPTICS"> F  </i>
   <v name="STM">      0.00000000      0.00000000      0.00000000      0.00000000      0.00000000      0.00000000      0.00000000</v>
  </separator>
  <separator name="performance" >
   <i type="int" name="NPAR">     4</i>
   <i type="int" name="NSIM">     4</i>
   <i type="int" name="NBLK">    -1</i>
   <i type="logical" name="LPLANE"> T  </i>
   <i type="logical" name="LSCALAPACK"> F  </i>
   <i type="logical" name="LSCAAWARE"> F  </i>
   <i type="logical" name="LSCALU"> F  </i>
   <i type="logical" name="LASYNC"> F  </i>
   <i type="logical" name="LORBITALREAL"> F  </i>
  </separator>
  <separator name="miscellaneous" >
   <i type="int" name="IDIOT">     3</i>
   <i type="logical" name="LMUSIC"> F  </i>
   <v name="POMASS">     12.01100000</v>
   <v name="DARWINR">      0.00000000</v>
   <v name="DARWINV">      1.00000000</v>
   <i type="logical" name="LCORR"> T  </i>
  </separator>
  <i type="logical" name="GGA_COMPAT"> T  </i>
  <i type="logical" name="LBERRY"> F  </i>
  <i type="int" name="ICORELEVEL">     0</i>
  <i type="logical" name="LDAU"> F  </i>
  <i type="int" name="I_CONSTRAINED_M">     0</i>
  <separator name="electronic exchange-correlation" >
   <i type="string" name="GGA">--</i>
   <i type="int" name="VOSKOWN">     0</i>
   <i type="logical" name="LHFCALC"> F  </i>
   <i type="string" name="PRECFOCK"></i>
   <i type="logical" name="LSYMGRAD"> F  </i>
   <i type="logical" name="LHFONE"> F  </i>
   <i type="logical" name="LRHFCALC"> F  </i>
   <i type="logical" name="LTHOMAS"> F  </i>
   <i type="logical" name="LMODELHF"> F  </i>
   <i name="ENCUT4O">     -1.00000000</i>
   <i type="int" name="EXXOEP">     0</i>
   <i type="int" name="FOURORBIT">     0</i>
   <i name="AEXX">      0.00000000</i>
   <i name="HFALPHA">      0.00000000</i>
   <i name="MCALPHA">      0.00000000</i>
   <i name="ALDAX">      1.00000000</i>
   <i name="AGGAX">      1.00000000</i>
   <i name="ALDAC">      1.00000000</i>
   <i name="AGGAC">      1.00000000</i>
   <i type="int" name="NKREDX">     1</i>
   <i type="int" name="NKREDY">     1</i>
   <i type="int" name="NKREDZ">     1</i>
   <i type="logical" name="SHIFTRED"> F  </i>
   <i type="logical" name="ODDONLY"> F  </i>
   <i type="logical" name="EVENONLY"> F  </i>
   <i type="int" name="LMAXFOCK">     0</i>
   <i type="int" name="NMAXFOCKAE">     0</i>
   <i type="logical" name="LFOCKAEDFT"> F  </i>
   <i name="HFSCREEN">      0.00000000</i>
   <i name="HFSCREENC">      0.00000000</i>
   <i type="int" name="NBANDSGWLOW">     0</i>
  </separator>
  <separator name="vdW DFT" >
   <i type="logical" name="LUSE_VDW"> F  </i>
   <i name="Zab_VDW">     -0.84910000</i>
   <i name="PARAM1">      0.12340000</i>
   <i name="PARAM2">      1.00000000</i>
   <i name="PARAM3">      0.00000000</i>
  </separator>
  <separator name="model GW" >
   <i type="int" name="MODEL_GW">     0</i>
   <i name="MODEL_EPS0">     31.62568521</i>
   <i name="MODEL_ALPHA">      1.00000000</i>
  </separator>
  <separator name="linear response parameters" >
   <i type="logical" name="LEPSILON"> F  </i>
   <i type="logical" name="LRPA"> F  </i>
   <i type="logical" name="LNABLA"> F  </i>
   <i type="logical" name="LVEL"> F  </i>
   <i type="int" name="KINTER">     0</i>
   <i name="CSHIFT">      0.10000000</i>
   <i name="OMEGAMAX">     -1.00000000</i>
   <i name="DEG_THRESHOLD">      0.00200000</i>
  </separator>
  <separator name="orbital magnetization" >
   <i type="logical" name="NUCIND"> F  </i>
   <v name="MAGPOS">      0.00000000      0.00000000      0.00000000</v>
   <i type="logical" name="LNICSALL"> T  </i>
   <i type="logical" name="ORBITALMAG"> F  </i>
   <i type="logical" name="LMAGBLOCH"> F  </i>
   <i type="logical" name="LCHIMAG"> F  </i>
   <i type="logical" name="LGAUGE"> T  </i>
   <i type="int" name="MAGATOM">     0</i>
   <v name="MAGDIPOL">      0.00000000      0.00000000      0.00000000</v>
   <v name="AVECCONST">      0.00000000      0.00000000      0.00000000</v>
  </separator>
  <separator name="response functions" >
   <i type="logical" name="LADDER"> F  </i>
   <i type="logical" name="LFXC"> F  </i>
   <i type="logical" name="LHARTREE"> T  </i>
   <i type="int" name="IBSE">     0</i>
   <i type="logical" name="LTCTE"> F  </i>
   <i type="logical" name="LTETE"> F  </i>
   <i type="logical" name="LTRIPLET"> F  </i>
   <i type="logical" name="LFXCEPS"> F  </i>
   <i type="logical" name="LFXHEG"> F  </i>
   <i type="logical" name="L2ORDER"> F  </i>
   <i type="logical" name="LUSEW"> F  </i>
   <i name="ENCUTGW">     -2.00000000</i>
   <i name="ENCUTGWSOFT">     -2.00000000</i>
   <i name="ENCUTLF">     -1.00000000</i>
   <i type="int" name="LMAXMP2">    -1</i>
   <i name="SCISSOR">      0.00000000</i>
   <i type="int" name="NOMEGA">     0</i>
   <i type="int" name="NOMEGAR">     0</i>
   <i type="int" name="NBANDSGW">    -1</i>
   <i type="int" name="NBANDSO">    -1</i>
   <i type="int" name="NBANDSV">    -1</i>
   <i type="int" name="NELM">   100</i>
   <i type="int" name="DIM">     3</i>
   <i type="int" name="ANTIRES">     0</i>
   <i name="OMEGAMAX">    -30.00000000</i>
   <i name="OMEGAMIN">    -30.00000000</i>
   <i name="OMEGATL">   -200.00000000</i>
   <i type="int" name="OMEGAGRID">     0</i>
   <i name="CSHIFT">     -0.10000000</i>
   <i type="logical" name="SELFENERGY"> F  </i>
   <i type="logical" name="LSPECTRAL"> F  </i>
   <i type="logical" name="ODDONLYGW"> F  </i>
   <i type="logical" name="EVENONLYGW"> F  </i>
   <i type="int" name="NKREDLFX">     1</i>
   <i type="int" name="NKREDLFY">     1</i>
   <i type="int" name="NKREDLFZ">     1</i>
   <i type="int" name="MAXMEM">  1800</i>
   <i type="int" name="TELESCOPE">     0</i>
   <i type="int" name="TAUPAR">     1</i>
  </separator>
  <separator name="External order field" >
   <i name="OFIELD_KAPPA">      0.00000000</i>
   <v name="OFIELD_K">      0.00000000      0.00000000      0.00000000</v>
   <i name="OFIELD_Q6_NEAR">      0.00000000</i>
   <i name="OFIELD_Q6_FAR">      0.00000000</i>
   <i name="OFIELD_A">      0.00000000</i>
  </separator>
 </parameters>
 <atominfo>
  <atoms>       4 </atoms>
  <types>       1 </types>
  <array name="atoms" >
   <dimension dim="1">ion</dimension>
   <field type="string">element</field>
   <field type="int">atomtype</field>
   <set>
    <rc><c>C </c><c>   1</c></rc>
    <rc><c>C </c><c>   1</c></rc>
    <rc><c>C </c><c>   1</c></rc>
    <rc><c>C </c><c>   1</c></rc>
   </set>
  </array>
  <array name="atomtypes" >
   <dimension dim="1">type</dimension>
   <field type="int">atomspertype</field>
   <field type="string">element</field>
   <field>mass</field>
   <field>valence</field>
   <field type="string">pseudopotential</field>
   <set>
    <rc><c>   4</c><c>C </c><c>     12.01100000</c><c>      4.00000000</c><c> PAW_PBE C 08Apr2002                    </c></rc>
   </set>
  </array>
 </atominfo>
 <structure name="initialpos" >
  <crystal>
   <varray name="basis" >
    <v>       4.25839085       0.00000000       0.00000000 </v>
    <v>       0.00000000       2.51726457       0.00000000 </v>
    <v>       0.00000000       0.00000000      19.66863861 </v>
   </varray>
   <i name="volume">    210.83790140 </i>
   <varray name="rec_basis" >
    <v>       0.23483049       0.00000000       0.00000000 </v>
    <v>       0.00000000       0.39725661       0.00000000 </v>
    <v>       0.00000000       0.00000000       0.05084236 </v>
   </varray>
  </crystal>
  <varray name="positions" >
   <v>       0.00051919       0.00000000       0.00000000 </v>
   <v>       0.16614747       0.50000000       0.00000000 </v>
   <v>       0.50051919       0.50000000       0.00000000 </v>
   <v>       0.66614747       0.00000000       0.00000000 </v>
  </varray>
 </structure>
 <calculation>
  <scstep>
   <time name="dav">  320.63  322.68</time>
   <time name="total">  323.44  325.52</time>
   <energy>
    <i name="alphaZ">      6.18334092 </i>
    <i name="ewald">   2475.46772133 </i>
    <i name="hartreedc">  -2904.18376400 </i>
    <i name="XCdc">     54.87081277 </i>
    <i name="pawpsdc">    151.32577238 </i>
    <i name="pawaedc">   -155.92769107 </i>
    <i name="eentropy">     -0.00171410 </i>
    <i name="bandstr">    -28.77638294 </i>
    <i name="atom">    588.62352690 </i>
    <i name="e_fr_energy">    187.58162220 </i>
    <i name="e_wo_entrp">    187.58333630 </i>
    <i name="e_0_energy">    187.58247925 </i>
   </energy>
  </scstep>
  <scstep>
   <time name="dav">  486.36  489.13</time>
   <time name="total">  486.36  489.14</time>
   <energy>
    <i name="e_fr_energy">     -9.25468479 </i>
    <i name="e_wo_entrp">     -9.25454812 </i>
    <i name="e_0_energy">     -9.25461646 </i>
   </energy>
  </scstep>
  <scstep>
   <time name="dav">  369.44  371.75</time>
   <time name="total">  402.87  405.55</time>
   <energy>
    <i name="e_fr_energy">    -38.16386759 </i>
    <i name="e_wo_entrp">    -38.16386740 </i>
    <i name="e_0_energy">    -38.16386750 </i>
   </energy>
  </scstep>
  <scstep>
   <time name="diag">   86.45   87.14</time>
   <time name="diis">  369.52  372.12</time>
   <time name="orth">    3.08    3.09</time>
   <time name="total">  495.34  498.77</time>
   <energy>
    <i name="e_fr_energy">    -37.60774112 </i>
    <i name="e_wo_entrp">    -37.60774095 </i>
    <i name="e_0_energy">    -37.60774104 </i>
   </energy>
  </scstep>
  <scstep>
   <time name="diag">   86.84   87.08</time>
   <time name="diis">  366.24  368.52</time>
   <time name="orth">    3.08    3.13</time>
   <time name="total">  492.22  495.18</time>
   <energy>
    <i name="e_fr_energy">    -36.89024077 </i>
    <i name="e_wo_entrp">    -36.89024038 </i>
    <i name="e_0_energy">    -36.89024057 </i>
   </energy>
  </scstep>
  <scstep>
   <time name="diag">   86.30   87.18</time>
   <time name="diis">  402.74  404.86</time>
   <time name="orth">    3.07    3.07</time>
   <time name="total">  527.96  531.58</time>
   <energy>
    <i name="e_fr_energy">    -36.89229221 </i>
    <i name="e_wo_entrp">    -36.89229186 </i>
    <i name="e_0_energy">    -36.89229204 </i>
   </energy>
  </scstep>
  <scstep>
   <time name="diag">   86.10   87.19</time>
   <time name="diis">  360.44  361.97</time>
   <time name="orth">    3.08    3.09</time>
   <time name="total">  485.99  488.70</time>
   <energy>
    <i name="e_fr_energy">    -36.88332526 </i>
    <i name="e_wo_entrp">    -36.88332498 </i>
    <i name="e_0_energy">    -36.88332512 </i>
   </energy>
  </scstep>
  <scstep>
   <time name="diag">   86.94   87.11</time>
   <time name="diis">  368.17  369.09</time>
   <time name="orth">    3.07    3.08</time>
   <time name="total">  494.43  495.74</time>
   <energy>
    <i name="e_fr_energy">    -36.87829154 </i>
    <i name="e_wo_entrp">    -36.87829124 </i>
    <i name="e_0_energy">    -36.87829139 </i>
   </energy>
  </scstep>
  <scstep>
   <time name="diag">   86.59   87.12</time>
   <time name="diis">  350.84  351.88</time>
   <time name="orth">    3.09    3.09</time>
   <time name="total">  476.71  492.89</time>
   <energy>
    <i name="e_fr_energy">    -36.87811919 </i>
    <i name="e_wo_entrp">    -36.87811886 </i>
    <i name="e_0_energy">    -36.87811903 </i>
   </energy>
  </scstep>
  <scstep>
   <time name="diag">   86.90   87.08</time>
   <time name="diis">  351.06  352.81</time>
   <time name="orth">    3.08    3.09</time>
   <time name="total">  477.12  479.42</time>
   <energy>
    <i name="e_fr_energy">    -36.87797374 </i>
    <i name="e_wo_entrp">    -36.87797343 </i>
    <i name="e_0_energy">    -36.87797359 </i>
   </energy>
  </scstep>
  <scstep>
   <time name="diag">   86.31   87.16</time>
   <time name="diis">  352.66  354.49</time>
   <time name="orth">    3.09    3.09</time>
   <time name="total">  478.34  481.15</time>
   <energy>
    <i name="e_fr_energy">    -36.88032612 </i>
    <i name="e_wo_entrp">    -36.88032582 </i>
    <i name="e_0_energy">    -36.88032597 </i>
   </energy>
  </scstep>
  <scstep>
   <time name="diag">   86.91   87.13</time>
   <time name="diis">  350.99  353.91</time>
   <time name="orth">    3.08    3.10</time>
   <time name="total">  477.11  480.57</time>
   <energy>
    <i name="e_fr_energy">    -36.88079704 </i>
    <i name="e_wo_entrp">    -36.88079673 </i>
    <i name="e_0_energy">    -36.88079688 </i>
   </energy>
  </scstep>
  <scstep>
   <time name="diag">   86.65   87.16</time>
   <time name="diis">  357.91  359.88</time>
   <time name="orth">    3.08    3.08</time>
   <time name="total">  483.87  486.56</time>
   <energy>
    <i name="e_fr_energy">    -36.88105543 </i>
    <i name="e_wo_entrp">    -36.88105512 </i>
    <i name="e_0_energy">    -36.88105527 </i>
   </energy>
  </scstep>
  <scstep>
   <time name="diag">   86.62   87.03</time>
   <time name="diis">  353.32  356.02</time>
   <time name="orth">    3.07    3.09</time>
   <time name="total">  479.17  486.17</time>
   <energy>
    <i name="e_fr_energy">    -36.88113673 </i>
    <i name="e_wo_entrp">    -36.88113642 </i>
    <i name="e_0_energy">    -36.88113658 </i>
   </energy>
  </scstep>
  <scstep>
   <time name="diag">   86.71   87.08</time>
   <time name="diis">  353.69  357.01</time>
   <time name="orth">    3.07    3.08</time>
   <time name="total">  479.48  483.61</time>
   <energy>
    <i name="e_fr_energy">    -36.88114800 </i>
    <i name="e_wo_entrp">    -36.88114769 </i>
    <i name="e_0_energy">    -36.88114785 </i>
   </energy>
  </scstep>
  <scstep>
   <time name="diag">   86.40   87.13</time>
   <time name="diis">  351.35  351.88</time>
   <time name="orth">    3.12    3.14</time>
   <time name="total">  476.99  478.59</time>
   <energy>
    <i name="e_fr_energy">    -36.88116081 </i>
    <i name="e_wo_entrp">    -36.88116050 </i>
    <i name="e_0_energy">    -36.88116066 </i>
   </energy>
  </scstep>
  <scstep>
   <time name="diag">   86.34   87.11</time>
   <time name="diis">  363.36  365.48</time>
   <time name="orth">    3.07    3.08</time>
   <time name="total">  488.90  492.32</time>
   <energy>
    <i name="e_fr_energy">    -36.88116651 </i>
    <i name="e_wo_entrp">    -36.88116620 </i>
    <i name="e_0_energy">    -36.88116635 </i>
   </energy>
  </scstep>
  <scstep>
   <time name="diag">   86.72   87.12</time>
   <time name="diis">  350.03  350.96</time>
   <time name="orth">    3.08    3.09</time>
   <time name="total">  476.16  477.61</time>
   <energy>
    <i name="e_fr_energy">    -36.88116760 </i>
    <i name="e_wo_entrp">    -36.88116729 </i>
    <i name="e_0_energy">    -36.88116744 </i>
   </energy>
  </scstep>
  <scstep>
   <time name="diag">   86.86   87.05</time>
   <time name="diis">  360.91  362.48</time>
   <time name="orth">    3.09    3.09</time>
   <time name="total">  487.19  489.04</time>
   <energy>
    <i name="e_fr_energy">    -36.88116835 </i>
    <i name="e_wo_entrp">    -36.88116804 </i>
    <i name="e_0_energy">    -36.88116820 </i>
   </energy>
  </scstep>
  <scstep>
   <time name="diag">   86.97   87.10</time>
   <time name="diis">  276.35  276.70</time>
   <time name="orth">    3.07    3.07</time>
   <time name="total">  402.75  403.36</time>
   <energy>
    <i name="e_fr_energy">    -36.88116841 </i>
    <i name="e_wo_entrp">    -36.88116810 </i>
    <i name="e_0_energy">    -36.88116826 </i>
   </energy>
  </scstep>
  <scstep>
   <time name="diag">   87.05   87.12</time>
   <time name="diis">  267.09  268.63</time>
   <time name="orth">    3.07    3.07</time>
   <time name="total">  393.39  395.29</time>
   <energy>
    <i name="e_fr_energy">    -36.88116843 </i>
    <i name="e_wo_entrp">    -36.88116812 </i>
    <i name="e_0_energy">    -36.88116827 </i>
   </energy>
  </scstep>
  <scstep>
   <time name="diag">   86.66   87.15</time>
   <time name="diis">  242.13  243.38</time>
   <time name="orth">    3.07    3.07</time>
   <time name="total">  368.11  370.08</time>
   <energy>
    <i name="e_fr_energy">    -36.88116843 </i>
    <i name="e_wo_entrp">    -36.88116812 </i>
    <i name="e_0_energy">    -36.88116827 </i>
   </energy>
  </scstep>
  <scstep>
   <time name="diag">   86.71   87.13</time>
   <time name="diis">  232.83  233.46</time>
   <time name="orth">    3.07    3.07</time>
   <time name="total">  359.00  360.16</time>
   <energy>
    <i name="e_fr_energy">    -36.88116843 </i>
    <i name="e_wo_entrp">    -36.88116812 </i>
    <i name="e_0_energy">    -36.88116827 </i>
   </energy>
  </scstep>
  <scstep>
   <time name="diag">   86.60   87.03</time>
   <time name="diis">  221.09  222.85</time>
   <time name="orth">    3.07    3.07</time>
   <time name="total">  347.07  349.75</time>
   <energy>
    <i name="e_fr_energy">    -36.88116843 </i>
    <i name="e_wo_entrp">    -36.88116812 </i>
    <i name="e_0_energy">    -36.88116827 </i>
   </energy>
  </scstep>
  <scstep>
   <time name="diag">   86.91   87.04</time>
   <time name="diis">  210.40  211.72</time>
   <time name="orth">    3.07    3.09</time>
   <time name="total">  336.48  338.33</time>
   <energy>
    <i name="e_fr_energy">    -36.88116843 </i>
    <i name="e_wo_entrp">    -36.88116812 </i>
    <i name="e_0_energy">    -36.88116827 </i>
   </energy>
  </scstep>
  <scstep>
   <time name="diag">   86.67   87.02</time>
   <time name="diis">  202.99  204.21</time>
   <time name="orth">    3.07    3.07</time>
   <time name="total">  328.81  330.80</time>
   <energy>
    <i name="e_fr_energy">    -36.88116843 </i>
    <i name="e_wo_entrp">    -36.88116812 </i>
    <i name="e_0_energy">    -36.88116827 </i>
   </energy>
  </scstep>
  <scstep>
   <time name="diag">   86.41   86.99</time>
   <time name="diis">  198.05  199.11</time>
   <time name="orth">    3.08    3.08</time>
   <time name="total">  323.88  325.65</time>
   <energy>
    <i name="e_fr_energy">    -36.88116843 </i>
    <i name="e_wo_entrp">    -36.88116812 </i>
    <i name="e_0_energy">    -36.88116827 </i>
   </energy>
  </scstep>
  <scstep>
   <time name="diag">   86.91   87.07</time>
   <time name="diis">  194.24  194.94</time>
   <time name="orth">    3.07    3.09</time>
   <time name="total">  320.51  321.63</time>
   <energy>
    <i name="e_fr_energy">    -36.88116843 </i>
    <i name="e_wo_entrp">    -36.88116812 </i>
    <i name="e_0_energy">    -36.88116827 </i>
   </energy>
  </scstep>
  <scstep>
   <time name="diag">   86.81   87.11</time>
   <time name="diis">  188.76  189.28</time>
   <time name="orth">    3.09    3.10</time>
   <time name="total">  281.35  282.36</time>
   <energy>
    <i name="alphaZ">      6.18334092 </i>
    <i name="ewald">   2475.46772133 </i>
    <i name="hartreedc">  -2969.68924346 </i>
    <i name="XCdc">     57.21460199 </i>
    <i name="pawpsdc">    270.37909373 </i>
    <i name="pawaedc">   -275.49759755 </i>
    <i name="eentropy">     -0.00000031 </i>
    <i name="bandstr">   -189.56261198 </i>
    <i name="atom">    588.62352690 </i>
    <i name="e_fr_energy">    -36.88116843 </i>
    <i name="e_wo_entrp">    -36.88116812 </i>
    <i name="e_0_energy">    -36.88116827 </i>
   </energy>
  </scstep>
  <structure>
   <crystal>
    <varray name="basis" >
     <v>       4.25839085       0.00000000       0.00000000 </v>
     <v>       0.00000000       2.51726457       0.00000000 </v>
     <v>       0.00000000       0.00000000      19.66863861 </v>
    </varray>
    <i name="volume">    210.83790140 </i>
    <varray name="rec_basis" >
     <v>       0.23483049       0.00000000       0.00000000 </v>
     <v>       0.00000000       0.39725661       0.00000000 </v>
     <v>       0.00000000       0.00000000       0.05084236 </v>
    </varray>
   </crystal>
   <varray name="positions" >
    <v>       0.00051919       0.00000000       0.00000000 </v>
    <v>       0.16614747       0.50000000       0.00000000 </v>
    <v>       0.50051919       0.50000000       0.00000000 </v>
    <v>       0.66614747       0.00000000       0.00000000 </v>
   </varray>
  </structure>
  <varray name="forces" >
   <v>       0.00221497      -0.00000000       0.00000000 </v>
   <v>      -0.00221497       0.00000000       0.00000000 </v>
   <v>       0.00221497      -0.00000000       0.00000000 </v>
   <v>      -0.00221497       0.00000000       0.00000000 </v>
  </varray>
  <varray name="stress" >
   <v>       0.01327709       0.00000000       0.00000000 </v>
   <v>       0.00000000     -33.38290998       0.00000000 </v>
   <v>       0.00000000       0.00000000      -0.01018496 </v>
  </varray>
  <energy>
   <i name="e_fr_energy">    -36.88116843 </i>
   <i name="e_wo_entrp">    -36.88116827 </i>
   <i name="e_0_energy">     -0.00000031 </i>
  </energy>
  <time name="totalsc">12557.5312642.53</time>
 </calculation>
 <calculation>
  <scstep>
   <time name="dav">  334.54  334.92</time>
   <time name="total">  370.67  371.08</time>
   <energy>
    <i name="alphaZ">      6.18334092 </i>
    <i name="ewald">   2475.46588102 </i>
    <i name="hartreedc">  -2969.68844286 </i>
    <i name="XCdc">     57.21454932 </i>
    <i name="pawpsdc">    270.37909379 </i>
    <i name="pawaedc">   -275.49759761 </i>
    <i name="eentropy">     -0.00000036 </i>
    <i name="bandstr">   -189.56151810 </i>
    <i name="atom">    588.62352690 </i>
    <i name="e_fr_energy">    -36.88116696 </i>
    <i name="e_wo_entrp">    -36.88116660 </i>
    <i name="e_0_energy">    -36.88116678 </i>
   </energy>
  </scstep>
  <scstep>
   <time name="diag">   87.05   87.13</time>
   <time name="diis">  352.09  353.33</time>
   <time name="orth">    3.09    3.11</time>
   <time name="total">  478.54  480.07</time>
   <energy>
    <i name="e_fr_energy">    -36.88116705 </i>
    <i name="e_wo_entrp">    -36.88116669 </i>
    <i name="e_0_energy">    -36.88116687 </i>
   </energy>
  </scstep>
  <scstep>
   <time name="diag">   87.03   87.17</time>
   <time name="diis">  356.02  356.72</time>
   <time name="orth">    3.11    3.11</time>
   <time name="total">  482.38  483.31</time>
   <energy>
    <i name="e_fr_energy">    -36.88116697 </i>
    <i name="e_wo_entrp">    -36.88116662 </i>
    <i name="e_0_energy">    -36.88116680 </i>
   </energy>
  </scstep>
  <scstep>
   <time name="diag">   86.92   87.10</time>
   <time name="diis">  362.25  362.55</time>
   <time name="orth">    3.09    3.09</time>
   <time name="total">  488.41  489.05</time>
   <energy>
    <i name="e_fr_energy">    -36.88116697 </i>
    <i name="e_wo_entrp">    -36.88116662 </i>
    <i name="e_0_energy">    -36.88116679 </i>
   </energy>
  </scstep>
  <scstep>
   <time name="diag">   87.02   87.11</time>
   <time name="diis">  350.80  351.06</time>
   <time name="orth">    3.11    3.11</time>
   <time name="total">  477.20  477.64</time>
   <energy>
    <i name="e_fr_energy">    -36.88116697 </i>
    <i name="e_wo_entrp">    -36.88116661 </i>
    <i name="e_0_energy">    -36.88116679 </i>
   </energy>
  </scstep>
  <scstep>
   <time name="diag">   87.03   87.13</time>
   <time name="diis">  250.93  251.15</time>
   <time name="orth">    3.08    3.08</time>
   <time name="total">  343.75  344.10</time>
   <energy>
    <i name="alphaZ">      6.18334092 </i>
    <i name="ewald">   2475.46588102 </i>
    <i name="hartreedc">  -2969.68773265 </i>
    <i name="XCdc">     57.21451869 </i>
    <i name="pawpsdc">    270.37589895 </i>
    <i name="pawaedc">   -275.49438908 </i>
    <i name="eentropy">     -0.00000036 </i>
    <i name="bandstr">   -189.56221137 </i>
    <i name="atom">    588.62352690 </i>
    <i name="e_fr_energy">    -36.88116697 </i>
    <i name="e_wo_entrp">    -36.88116661 </i>
    <i name="e_0_energy">    -36.88116679 </i>
   </energy>
  </scstep>
  <structure>
   <crystal>
    <varray name="basis" >
     <v>       4.25839085       0.00000000       0.00000000 </v>
     <v>       0.00000000       2.51726457       0.00000000 </v>
     <v>       0.00000000       0.00000000      19.66863861 </v>
    </varray>
    <i name="volume">    210.83790140 </i>
    <varray name="rec_basis" >
     <v>       0.23483049       0.00000000       0.00000000 </v>
     <v>       0.00000000       0.39725661       0.00000000 </v>
     <v>       0.00000000       0.00000000       0.05084236 </v>
    </varray>
   </crystal>
   <varray name="positions" >
    <v>       0.00054429      -0.00000000       0.00000000 </v>
    <v>       0.16612238       0.50000000       0.00000000 </v>
    <v>       0.50054429       0.50000000       0.00000000 </v>
    <v>       0.66612238       0.00000000       0.00000000 </v>
   </varray>
  </structure>
  <varray name="forces" >
   <v>      -0.00893112       0.00000000       0.00000000 </v>
   <v>       0.00893112      -0.00000000       0.00000000 </v>
   <v>      -0.00893112      -0.00000000       0.00000000 </v>
   <v>       0.00893112      -0.00000000       0.00000000 </v>
  </varray>
  <varray name="stress" >
   <v>      -0.02967498       0.00000000       0.00000000 </v>
   <v>       0.00000000     -33.35429458       0.00000000 </v>
   <v>       0.00000000       0.00000000      -0.01027686 </v>
  </varray>
  <energy>
   <i name="e_fr_energy">    -36.88116697 </i>
   <i name="e_wo_entrp">    -36.88116679 </i>
   <i name="e_0_energy">     -0.00000036 </i>
  </energy>
  <time name="totalsc"> 2748.17 2753.41</time>
 </calculation>
 <calculation>
  <scstep>
   <time name="dav">  344.67  345.89</time>
   <time name="total">  380.99  382.22</time>
   <energy>
    <i name="alphaZ">      6.18334092 </i>
    <i name="ewald">   2475.46735435 </i>
    <i name="hartreedc">  -2969.68834733 </i>
    <i name="XCdc">     57.21456017 </i>
    <i name="pawpsdc">    270.37589923 </i>
    <i name="pawaedc">   -275.49438914 </i>
    <i name="eentropy">     -0.00000032 </i>
    <i name="bandstr">   -189.56311329 </i>
    <i name="atom">    588.62352690 </i>
    <i name="e_fr_energy">    -36.88116849 </i>
    <i name="e_wo_entrp">    -36.88116817 </i>
    <i name="e_0_energy">    -36.88116833 </i>
   </energy>
  </scstep>
  <scstep>
   <time name="diag">   87.06   87.11</time>
   <time name="diis">  353.50  353.95</time>
   <time name="orth">    3.10    3.11</time>
   <time name="total">  480.14  480.85</time>
   <energy>
    <i name="e_fr_energy">    -36.88116855 </i>
    <i name="e_wo_entrp">    -36.88116823 </i>
    <i name="e_0_energy">    -36.88116839 </i>
   </energy>
  </scstep>
  <scstep>
   <time name="diag">   87.06   87.13</time>
   <time name="diis">  356.36  356.63</time>
   <time name="orth">    3.11    3.11</time>
   <time name="total">  482.89  483.26</time>
   <energy>
    <i name="e_fr_energy">    -36.88116852 </i>
    <i name="e_wo_entrp">    -36.88116820 </i>
    <i name="e_0_energy">    -36.88116836 </i>
   </energy>
  </scstep>
  <scstep>
   <time name="diag">   87.08   87.14</time>
   <time name="diis">  361.19  361.45</time>
   <time name="orth">    3.08    3.08</time>
   <time name="total">  487.70  488.12</time>
   <energy>
    <i name="e_fr_energy">    -36.88116851 </i>
    <i name="e_wo_entrp">    -36.88116820 </i>
    <i name="e_0_energy">    -36.88116836 </i>
   </energy>
  </scstep>
  <scstep>
   <time name="diag">   87.12   87.19</time>
   <time name="diis">  326.75  327.00</time>
   <time name="orth">    3.10    3.10</time>
   <time name="total">  453.21  453.56</time>
   <energy>
    <i name="e_fr_energy">    -36.88116852 </i>
    <i name="e_wo_entrp">    -36.88116820 </i>
    <i name="e_0_energy">    -36.88116836 </i>
   </energy>
  </scstep>
  <scstep>
   <time name="diag">   87.07   87.15</time>
   <time name="diis">  240.73  240.89</time>
   <time name="orth">    3.08    3.09</time>
   <time name="total">  367.15  367.65</time>
   <energy>
    <i name="e_fr_energy">    -36.88116852 </i>
    <i name="e_wo_entrp">    -36.88116820 </i>
    <i name="e_0_energy">    -36.88116836 </i>
   </energy>
  </scstep>
  <scstep>
   <time name="diag">   87.10   87.17</time>
   <time name="diis">  234.19  234.36</time>
   <time name="orth">    3.11    3.11</time>
   <time name="total">  360.65  360.97</time>
   <energy>
    <i name="e_fr_energy">    -36.88116852 </i>
    <i name="e_wo_entrp">    -36.88116820 </i>
    <i name="e_0_energy">    -36.88116836 </i>
   </energy>
  </scstep>
  <scstep>
   <time name="diag">   87.04   87.13</time>
   <time name="diis">  221.84  221.99</time>
   <time name="orth">    3.09    3.09</time>
   <time name="total">  314.63  315.00</time>
   <energy>
    <i name="alphaZ">      6.18334092 </i>
    <i name="ewald">   2475.46735435 </i>
    <i name="hartreedc">  -2969.68891217 </i>
    <i name="XCdc">     57.21458524 </i>
    <i name="pawpsdc">    270.37846458 </i>
    <i name="pawaedc">   -275.49696579 </i>
    <i name="eentropy">     -0.00000032 </i>
    <i name="bandstr">   -189.56256225 </i>
    <i name="atom">    588.62352690 </i>
    <i name="e_fr_energy">    -36.88116852 </i>
    <i name="e_wo_entrp">    -36.88116820 </i>
    <i name="e_0_energy">    -36.88116836 </i>
   </energy>
  </scstep>
  <structure>
   <crystal>
    <varray name="basis" >
     <v>       4.25839085       0.00000000       0.00000000 </v>
     <v>       0.00000000       2.51726457       0.00000000 </v>
     <v>       0.00000000       0.00000000      19.66863861 </v>
    </varray>
    <i name="volume">    210.83790140 </i>
    <varray name="rec_basis" >
     <v>       0.23483049       0.00000000       0.00000000 </v>
     <v>       0.00000000       0.39725661       0.00000000 </v>
     <v>       0.00000000       0.00000000       0.05084236 </v>
    </varray>
   </crystal>
   <varray name="positions" >
    <v>       0.00052418      -0.00000000       0.00000000 </v>
    <v>       0.16614249       0.50000000       0.00000000 </v>
    <v>       0.50052418       0.50000000       0.00000000 </v>
    <v>       0.66614249       0.00000000       0.00000000 </v>
   </varray>
  </structure>
  <varray name="forces" >
   <v>      -0.00000525       0.00000000      -0.00000000 </v>
   <v>       0.00000525      -0.00000000       0.00000000 </v>
   <v>      -0.00000525      -0.00000000      -0.00000000 </v>
   <v>       0.00000525      -0.00000000       0.00000000 </v>
  </varray>
  <varray name="stress" >
   <v>       0.00470089       0.00000000       0.00000000 </v>
   <v>       0.00000000     -33.37717492       0.00000000 </v>
   <v>       0.00000000       0.00000000      -0.01016287 </v>
  </varray>
  <energy>
   <i name="e_fr_energy">    -36.88116852 </i>
   <i name="e_wo_entrp">    -36.88116836 </i>
   <i name="e_0_energy">     -0.00000032 </i>
  </energy>
  <time name="totalsc"> 3433.99 3438.39</time>
 </calculation>
 <calculation>
  <scstep>
   <time name="dav">  288.55  288.84</time>
   <time name="total">  324.66  324.98</time>
   <energy>
    <i name="alphaZ">      6.18334092 </i>
    <i name="ewald">   2475.46735522 </i>
    <i name="hartreedc">  -2969.68891523 </i>
    <i name="XCdc">     57.21458524 </i>
    <i name="pawpsdc">    270.37846160 </i>
    <i name="pawaedc">   -275.49696277 </i>
    <i name="eentropy">     -0.00000032 </i>
    <i name="bandstr">   -189.56256008 </i>
    <i name="atom">    588.62352690 </i>
    <i name="e_fr_energy">    -36.88116852 </i>
    <i name="e_wo_entrp">    -36.88116820 </i>
    <i name="e_0_energy">    -36.88116836 </i>
   </energy>
  </scstep>
  <scstep>
   <time name="diag">   87.03   87.12</time>
   <time name="diis">  188.01  188.11</time>
   <time name="orth">    3.11    3.11</time>
   <time name="total">  314.67  314.89</time>
   <energy>
    <i name="e_fr_energy">    -36.88116852 </i>
    <i name="e_wo_entrp">    -36.88116820 </i>
    <i name="e_0_energy">    -36.88116836 </i>
   </energy>
  </scstep>
  <scstep>
   <time name="diag">   87.05   87.12</time>
   <time name="diis">  179.77  179.91</time>
   <time name="orth">    3.08    3.08</time>
   <time name="total">  306.23  306.51</time>
   <energy>
    <i name="e_fr_energy">    -36.88116852 </i>
    <i name="e_wo_entrp">    -36.88116820 </i>
    <i name="e_0_energy">    -36.88116836 </i>
   </energy>
  </scstep>
  <scstep>
   <time name="diag">   87.03   87.10</time>
   <time name="diis">  174.39  174.47</time>
   <time name="orth">    3.08    3.08</time>
   <time name="total">  300.61  300.85</time>
   <energy>
    <i name="e_fr_energy">    -36.88116852 </i>
    <i name="e_wo_entrp">    -36.88116820 </i>
    <i name="e_0_energy">    -36.88116836 </i>
   </energy>
  </scstep>
  <scstep>
   <time name="diag">   87.08   87.15</time>
   <time name="diis">  172.63  172.75</time>
   <time name="orth">    3.08    3.08</time>
   <time name="total">  298.97  299.19</time>
   <energy>
    <i name="e_fr_energy">    -36.88116852 </i>
    <i name="e_wo_entrp">    -36.88116820 </i>
    <i name="e_0_energy">    -36.88116836 </i>
   </energy>
  </scstep>
  <scstep>
   <time name="diag">   87.00   87.09</time>
   <time name="diis">  168.81  169.02</time>
   <time name="orth">    3.08    3.08</time>
   <time name="total">  295.35  295.79</time>
   <energy>
    <i name="e_fr_energy">    -36.88116852 </i>
    <i name="e_wo_entrp">    -36.88116820 </i>
    <i name="e_0_energy">    -36.88116836 </i>
   </energy>
  </scstep>
  <scstep>
   <time name="diag">   87.05   87.14</time>
   <time name="diis">  167.77  167.94</time>
   <time name="orth">    3.08    3.08</time>
   <time name="total">  294.46  294.76</time>
   <energy>
    <i name="e_fr_energy">    -36.88116852 </i>
    <i name="e_wo_entrp">    -36.88116820 </i>
    <i name="e_0_energy">    -36.88116836 </i>
   </energy>
  </scstep>
  <scstep>
   <time name="diag">   86.78   87.09</time>
   <time name="diis">  165.60  166.22</time>
   <time name="orth">    3.08    3.10</time>
   <time name="total">  291.28  292.49</time>
   <energy>
    <i name="e_fr_energy">    -36.88116852 </i>
    <i name="e_wo_entrp">    -36.88116820 </i>
    <i name="e_0_energy">    -36.88116836 </i>
   </energy>
  </scstep>
  <scstep>
   <time name="diag">   87.02   87.10</time>
   <time name="diis">  163.41  163.55</time>
   <time name="orth">    3.11    3.11</time>
   <time name="total">  289.93  290.19</time>
   <energy>
    <i name="e_fr_energy">    -36.88116852 </i>
    <i name="e_wo_entrp">    -36.88116820 </i>
    <i name="e_0_energy">    -36.88116836 </i>
   </energy>
  </scstep>
  <scstep>
   <time name="diag">   87.02   87.08</time>
   <time name="diis">  163.23  163.37</time>
   <time name="orth">    3.09    3.12</time>
   <time name="total">  256.03  256.33</time>
   <energy>
    <i name="alphaZ">      6.18334092 </i>
    <i name="ewald">   2475.46735522 </i>
    <i name="hartreedc">  -2969.68893255 </i>
    <i name="XCdc">     57.21458537 </i>
    <i name="pawpsdc">    270.37846254 </i>
    <i name="pawaedc">   -275.49696369 </i>
    <i name="eentropy">     -0.00000032 </i>
    <i name="bandstr">   -189.56254292 </i>
    <i name="atom">    588.62352690 </i>
    <i name="e_fr_energy">    -36.88116852 </i>
    <i name="e_wo_entrp">    -36.88116820 </i>
    <i name="e_0_energy">    -36.88116836 </i>
   </energy>
  </scstep>
  <structure>
   <crystal>
    <varray name="basis" >
     <v>       4.25839085       0.00000000       0.00000000 </v>
     <v>       0.00000000       2.51726457       0.00000000 </v>
     <v>       0.00000000       0.00000000      19.66863861 </v>
    </varray>
    <i name="volume">    210.83790140 </i>
    <varray name="rec_basis" >
     <v>       0.23483049       0.00000000       0.00000000 </v>
     <v>       0.00000000       0.39725661       0.00000000 </v>
     <v>       0.00000000       0.00000000       0.05084236 </v>
    </varray>
   </crystal>
   <varray name="positions" >
    <v>       0.00052417       0.00000000      -0.00000000 </v>
    <v>       0.16614250       0.50000000       0.00000000 </v>
    <v>       0.50052417       0.50000000      -0.00000000 </v>
    <v>       0.66614250       0.00000000       0.00000000 </v>
   </varray>
  </structure>
  <varray name="forces" >
   <v>       0.00000493       0.00000000       0.00000000 </v>
   <v>      -0.00000493      -0.00000000      -0.00000000 </v>
   <v>       0.00000493      -0.00000000       0.00000000 </v>
   <v>      -0.00000493       0.00000000      -0.00000000 </v>
  </varray>
  <varray name="stress" >
   <v>       0.00474103       0.00000000       0.00000000 </v>
   <v>       0.00000000     -33.37721194       0.00000000 </v>
   <v>       0.00000000       0.00000000      -0.01017560 </v>
  </varray>
  <energy>
   <i name="e_fr_energy">    -36.88116852 </i>
   <i name="e_wo_entrp">    -36.88116836 </i>
   <i name="e_0_energy">     -0.00000032 </i>
  </energy>
  <time name="totalsc"> 3078.71 3082.92</time>
 </calculation>
 <calculation>
  <scstep>
   <time name="dav">  272.52  272.80</time>
   <time name="total">  308.72  309.22</time>
   <energy>
    <i name="alphaZ">      6.18334092 </i>
    <i name="ewald">   2475.46735480 </i>
    <i name="hartreedc">  -2969.68893235 </i>
    <i name="XCdc">     57.21458536 </i>
    <i name="pawpsdc">    270.37846246 </i>
    <i name="pawaedc">   -275.49696361 </i>
    <i name="eentropy">     -0.00000032 </i>
    <i name="bandstr">   -189.56254269 </i>
    <i name="atom">    588.62352690 </i>
    <i name="e_fr_energy">    -36.88116852 </i>
    <i name="e_wo_entrp">    -36.88116820 </i>
    <i name="e_0_energy">    -36.88116836 </i>
   </energy>
  </scstep>
  <scstep>
   <time name="diag">   86.96   87.13</time>
   <time name="diis">  146.98  147.16</time>
   <time name="orth">    3.09    3.09</time>
   <time name="total">  273.20  273.63</time>
   <energy>
    <i name="e_fr_energy">    -36.88116852 </i>
    <i name="e_wo_entrp">    -36.88116820 </i>
    <i name="e_0_energy">    -36.88116836 </i>
   </energy>
  </scstep>
  <scstep>
   <time name="diag">   86.91   87.19</time>
   <time name="diis">  152.81  153.17</time>
   <time name="orth">    3.10    3.10</time>
   <time name="total">  278.89  279.65</time>
   <energy>
    <i name="e_fr_energy">    -36.88116852 </i>
    <i name="e_wo_entrp">    -36.88116820 </i>
    <i name="e_0_energy">    -36.88116836 </i>
   </energy>
  </scstep>
  <scstep>
   <time name="diag">   86.79   87.14</time>
   <time name="diis">  152.54  152.75</time>
   <time name="orth">    3.08    3.10</time>
   <time name="total">  278.55  279.44</time>
   <energy>
    <i name="e_fr_energy">    -36.88116852 </i>
    <i name="e_wo_entrp">    -36.88116820 </i>
    <i name="e_0_energy">    -36.88116836 </i>
   </energy>
  </scstep>
  <scstep>
   <time name="diag">   86.37   87.15</time>
   <time name="diis">  150.49  151.53</time>
   <time name="orth">    3.10    3.10</time>
   <time name="total">  276.21  278.11</time>
   <energy>
    <i name="e_fr_energy">    -36.88116852 </i>
    <i name="e_wo_entrp">    -36.88116820 </i>
    <i name="e_0_energy">    -36.88116836 </i>
   </energy>
  </scstep>
  <scstep>
   <time name="diag">   86.65   87.14</time>
   <time name="diis">  143.11  144.36</time>
   <time name="orth">    3.08    3.10</time>
   <time name="total">  268.67  270.80</time>
   <energy>
    <i name="e_fr_energy">    -36.88116852 </i>
    <i name="e_wo_entrp">    -36.88116820 </i>
    <i name="e_0_energy">    -36.88116836 </i>
   </energy>
  </scstep>
  <scstep>
   <time name="diag">   86.35   87.11</time>
   <time name="diis">  147.70  148.96</time>
   <time name="orth">    3.09    3.12</time>
   <time name="total">  239.82  242.18</time>
   <energy>
    <i name="alphaZ">      6.18334092 </i>
    <i name="ewald">   2475.46735480 </i>
    <i name="hartreedc">  -2969.68892974 </i>
    <i name="XCdc">     57.21458527 </i>
    <i name="pawpsdc">    270.37846022 </i>
    <i name="pawaedc">   -275.49696135 </i>
    <i name="eentropy">     -0.00000032 </i>
    <i name="bandstr">   -189.56254523 </i>
    <i name="atom">    588.62352690 </i>
    <i name="e_fr_energy">    -36.88116852 </i>
    <i name="e_wo_entrp">    -36.88116820 </i>
    <i name="e_0_energy">    -36.88116836 </i>
   </energy>
  </scstep>
  <structure>
   <crystal>
    <varray name="basis" >
     <v>       4.25839085       0.00000000       0.00000000 </v>
     <v>       0.00000000       2.51726457       0.00000000 </v>
     <v>       0.00000000       0.00000000      19.66863861 </v>
    </varray>
    <i name="volume">    210.83790140 </i>
    <varray name="rec_basis" >
     <v>       0.23483049       0.00000000       0.00000000 </v>
     <v>       0.00000000       0.39725661       0.00000000 </v>
     <v>       0.00000000       0.00000000       0.05084236 </v>
    </varray>
   </crystal>
   <varray name="positions" >
    <v>       0.00052417       0.00000000      -0.00000000 </v>
    <v>       0.16614249       0.50000000       0.00000000 </v>
    <v>       0.50052417       0.50000000      -0.00000000 </v>
    <v>       0.66614249       0.00000000       0.00000000 </v>
   </varray>
  </structure>
  <varray name="forces" >
   <v>       0.00000010      -0.00000000       0.00000000 </v>
   <v>      -0.00000010       0.00000000       0.00000000 </v>
   <v>       0.00000010       0.00000000       0.00000000 </v>
   <v>      -0.00000010      -0.00000000       0.00000000 </v>
  </varray>
  <varray name="stress" >
   <v>       0.00472657       0.00000000       0.00000000 </v>
   <v>       0.00000000     -33.37719855       0.00000000 </v>
   <v>       0.00000000       0.00000000      -0.01019040 </v>
  </varray>
  <energy>
   <i name="e_fr_energy">    -36.88116852 </i>
   <i name="e_wo_entrp">    -36.88116836 </i>
   <i name="e_0_energy">     -0.00000032 </i>
  </energy>
  <time name="totalsc"> 2023.57 2033.41</time>
  <eigenvalues>
   <array>
    <dimension dim="1">band</dimension>
    <dimension dim="2">kpoint</dimension>
    <dimension dim="3">spin</dimension>
    <field>eigene</field>
    <field>occ</field>
    <set>
     <set comment="spin 1">
      <set comment="kpoint 1">
       <r>  -22.1141    1.0000 </r>
       <r>  -16.7639    1.0000 </r>
       <r>  -15.8842    1.0000 </r>
       <r>  -10.2512    1.0000 </r>
       <r>   -9.4189    1.0000 </r>
       <r>   -5.9570    1.0000 </r>
       <r>   -5.7470    1.0000 </r>
       <r>   -4.9435    1.0000 </r>
       <r>   -1.1277    0.0000 </r>
       <r>    0.5407    0.0000 </r>
       <r>    1.3394    0.0000 </r>
       <r>    1.7307    0.0000 </r>
      </set>
      <set comment="kpoint 2">
       <r>  -22.1037    1.0000 </r>
       <r>  -16.9536    1.0000 </r>
       <r>  -15.6794    1.0000 </r>
       <r>  -10.2389    1.0000 </r>
       <r>   -9.4085    1.0000 </r>
       <r>   -5.9805    1.0000 </r>
       <r>   -5.7877    1.0000 </r>
       <r>   -5.0129    1.0000 </r>
       <r>   -1.0433    0.0000 </r>
       <r>    0.5547    0.0000 </r>
       <r>    1.3536    0.0000 </r>
       <r>    1.7451    0.0000 </r>
      </set>
      <set comment="kpoint 3">
       <r>  -22.0727    1.0000 </r>
       <r>  -17.3146    1.0000 </r>
       <r>  -15.2733    1.0000 </r>
       <r>  -10.2020    1.0000 </r>
       <r>   -9.3775    1.0000 </r>
       <r>   -6.0497    1.0000 </r>
       <r>   -5.9082    1.0000 </r>
       <r>   -5.2045    1.0000 </r>
       <r>   -0.8068    0.0000 </r>
       <r>    0.5968    0.0000 </r>
       <r>    1.3961    0.0000 </r>
       <r>    1.7881    0.0000 </r>
      </set>
      <set comment="kpoint 4">
       <r>  -22.0210    1.0000 </r>
       <r>  -17.7046    1.0000 </r>
       <r>  -14.8085    1.0000 </r>
       <r>  -10.1406    1.0000 </r>
       <r>   -9.3258    1.0000 </r>
       <r>   -6.1607    1.0000 </r>
       <r>   -6.1043    1.0000 </r>
       <r>   -5.4818    1.0000 </r>
       <r>   -0.4552    0.0000 </r>
       <r>    0.6669    0.0000 </r>
       <r>    1.4670    0.0000 </r>
       <r>    1.8599    0.0000 </r>
      </set>
      <set comment="kpoint 5">
       <r>  -21.9486    1.0000 </r>
       <r>  -18.0924    1.0000 </r>
       <r>  -14.3165    1.0000 </r>
       <r>  -10.0548    1.0000 </r>
       <r>   -9.2540    1.0000 </r>
       <r>   -6.3694    1.0000 </r>
       <r>   -6.3080    1.0000 </r>
       <r>   -5.8101    1.0000 </r>
       <r>   -0.0242    0.0000 </r>
       <r>    0.7651    0.0000 </r>
       <r>    1.5661    0.0000 </r>
       <r>    1.9604    0.0000 </r>
      </set>
      <set comment="kpoint 6">
       <r>  -21.8556    1.0000 </r>
       <r>  -18.4692    1.0000 </r>
       <r>  -13.8070    1.0000 </r>
       <r>   -9.9447    1.0000 </r>
       <r>   -9.1622    1.0000 </r>
       <r>   -6.6957    1.0000 </r>
       <r>   -6.4849    1.0000 </r>
       <r>   -6.1641    1.0000 </r>
       <r>    0.4599    0.0000 </r>
       <r>    0.8913    0.0000 </r>
       <r>    1.6936    0.0000 </r>
       <r>    2.0896    0.0000 </r>
      </set>
      <set comment="kpoint 7">
       <r>  -21.7421    1.0000 </r>
       <r>  -18.8315    1.0000 </r>
       <r>  -13.2842    1.0000 </r>
       <r>   -9.8105    1.0000 </r>
       <r>   -9.0510    1.0000 </r>
       <r>   -7.0746    1.0000 </r>
       <r>   -6.6844    1.0000 </r>
       <r>   -6.5277    1.0000 </r>
       <r>    0.9791    0.0000 </r>
       <r>    1.0455    0.0000 </r>
       <r>    1.8493    0.0000 </r>
       <r>    2.2475    0.0000 </r>
      </set>
      <set comment="kpoint 8">
       <r>  -21.6082    1.0000 </r>
       <r>  -19.1775    1.0000 </r>
       <r>  -12.7512    1.0000 </r>
       <r>   -9.6524    1.0000 </r>
       <r>   -8.9210    1.0000 </r>
       <r>   -7.4978    1.0000 </r>
       <r>   -6.8997    1.0000 </r>
       <r>   -6.8905    1.0000 </r>
       <r>    1.2277    0.0000 </r>
       <r>    1.5209    0.0000 </r>
       <r>    2.0332    0.0000 </r>
       <r>    2.4341    0.0000 </r>
      </set>
      <set comment="kpoint 9">
       <r>  -21.4539    1.0000 </r>
       <r>  -19.5061    1.0000 </r>
       <r>  -12.2104    1.0000 </r>
       <r>   -9.4708    1.0000 </r>
       <r>   -8.7731    1.0000 </r>
       <r>   -7.9570    1.0000 </r>
       <r>   -7.2456    1.0000 </r>
       <r>   -7.1247    1.0000 </r>
       <r>    1.4378    0.0000 </r>
       <r>    2.0760    0.0000 </r>
       <r>    2.2452    0.0000 </r>
       <r>    2.6494    0.0000 </r>
      </set>
      <set comment="kpoint 10">
       <r>  -21.2794    1.0000 </r>
       <r>  -19.8168    1.0000 </r>
       <r>  -11.6642    1.0000 </r>
       <r>   -9.2660    1.0000 </r>
       <r>   -8.6082    1.0000 </r>
       <r>   -8.4451    1.0000 </r>
       <r>   -7.5887    1.0000 </r>
       <r>   -7.3541    1.0000 </r>
       <r>    1.6758    0.0000 </r>
       <r>    2.4851    0.0000 </r>
       <r>    2.6363    0.0000 </r>
       <r>    2.8934    0.0000 </r>
      </set>
      <set comment="kpoint 11">
       <r>  -21.0847    1.0000 </r>
       <r>  -20.1088    1.0000 </r>
       <r>  -11.1152    1.0000 </r>
       <r>   -9.0386    1.0000 </r>
       <r>   -8.9555    1.0000 </r>
       <r>   -8.4275    1.0000 </r>
       <r>   -7.9165    1.0000 </r>
       <r>   -7.5832    1.0000 </r>
       <r>    1.9416    0.0000 </r>
       <r>    2.7526    0.0000 </r>
       <r>    3.1660    0.0000 </r>
       <r>    3.1912    0.0000 </r>
      </set>
      <set comment="kpoint 12">
       <r>  -20.8702    1.0000 </r>
       <r>  -20.3820    1.0000 </r>
       <r>  -10.5663    1.0000 </r>
       <r>   -9.4824    1.0000 </r>
       <r>   -8.7890    1.0000 </r>
       <r>   -8.2327    1.0000 </r>
       <r>   -8.2269    1.0000 </r>
       <r>   -7.8081    1.0000 </r>
       <r>    2.2351    0.0000 </r>
       <r>    2.9039    0.0000 </r>
       <r>    3.0467    0.0000 </r>
       <r>    3.4674    0.0000 </r>
      </set>
      <set comment="kpoint 13">
       <r>  -20.6358    1.0000 </r>
       <r>  -20.6358    1.0000 </r>
       <r>  -10.0207    1.0000 </r>
       <r>  -10.0207    1.0000 </r>
       <r>   -8.5181    1.0000 </r>
       <r>   -8.5181    1.0000 </r>
       <r>   -8.0255    1.0000 </r>
       <r>   -8.0255    1.0000 </r>
       <r>    2.5560    0.0000 </r>
       <r>    2.5560    0.0000 </r>
       <r>    3.3637    0.0000 </r>
       <r>    3.3637    0.0000 </r>
      </set>
      <set comment="kpoint 14">
       <r>  -22.1010    1.0000 </r>
       <r>  -16.7526    1.0000 </r>
       <r>  -15.8735    1.0000 </r>
       <r>  -10.2356    1.0000 </r>
       <r>   -9.4777    1.0000 </r>
       <r>   -6.0111    1.0000 </r>
       <r>   -5.7789    1.0000 </r>
       <r>   -4.9276    1.0000 </r>
       <r>   -1.1335    0.0000 </r>
       <r>    0.5584    0.0000 </r>
       <r>    1.3574    0.0000 </r>
       <r>    1.7490    0.0000 </r>
      </set>
      <set comment="kpoint 15">
       <r>  -22.0906    1.0000 </r>
       <r>  -16.9422    1.0000 </r>
       <r>  -15.6690    1.0000 </r>
       <r>  -10.2233    1.0000 </r>
       <r>   -9.4673    1.0000 </r>
       <r>   -6.0379    1.0000 </r>
       <r>   -5.8155    1.0000 </r>
       <r>   -4.9972    1.0000 </r>
       <r>   -1.0490    0.0000 </r>
       <r>    0.5725    0.0000 </r>
       <r>    1.3716    0.0000 </r>
       <r>    1.7633    0.0000 </r>
      </set>
      <set comment="kpoint 16">
       <r>  -22.0596    1.0000 </r>
       <r>  -17.3029    1.0000 </r>
       <r>  -15.2633    1.0000 </r>
       <r>  -10.1864    1.0000 </r>
       <r>   -9.4362    1.0000 </r>
       <r>   -6.1188    1.0000 </r>
       <r>   -5.9224    1.0000 </r>
       <r>   -5.1891    1.0000 </r>
       <r>   -0.8125    0.0000 </r>
       <r>    0.6146    0.0000 </r>
       <r>    1.4141    0.0000 </r>
       <r>    1.8064    0.0000 </r>
      </set>
      <set comment="kpoint 17">
       <r>  -22.0078    1.0000 </r>
       <r>  -17.6927    1.0000 </r>
       <r>  -14.7990    1.0000 </r>
       <r>  -10.1250    1.0000 </r>
       <r>   -9.3844    1.0000 </r>
       <r>   -6.2580    1.0000 </r>
       <r>   -6.0873    1.0000 </r>
       <r>   -5.4668    1.0000 </r>
       <r>   -0.4611    0.0000 </r>
       <r>    0.6847    0.0000 </r>
       <r>    1.4850    0.0000 </r>
       <r>    1.8782    0.0000 </r>
      </set>
      <set comment="kpoint 18">
       <r>  -21.9355    1.0000 </r>
       <r>  -18.0803    1.0000 </r>
       <r>  -14.3077    1.0000 </r>
       <r>  -10.0392    1.0000 </r>
       <r>   -9.3123    1.0000 </r>
[...]
       <r>   -9.0453    1.0000 </r>
       <r>   -5.6512    1.0000 </r>
       <r>   -5.6512    1.0000 </r>
       <r>   -0.5448    0.0000 </r>
       <r>   -0.5448    0.0000 </r>
       <r>    4.8166    0.0000 </r>
       <r>    4.8166    0.0000 </r>
      </set>
      <set comment="kpoint 209">
       <r>  -18.8394    1.0000 </r>
       <r>  -17.1328    1.0000 </r>
       <r>  -13.8962    1.0000 </r>
       <r>  -12.3327    1.0000 </r>
       <r>  -12.3271    1.0000 </r>
       <r>  -10.8564    1.0000 </r>
       <r>   -6.4839    1.0000 </r>
       <r>   -4.6669    1.0000 </r>
       <r>   -0.9948    0.0000 </r>
       <r>    1.0806    0.0000 </r>
       <r>    5.0729    0.0000 </r>
       <r>    5.8619    0.0000 </r>
      </set>
      <set comment="kpoint 210">
       <r>  -18.8297    1.0000 </r>
       <r>  -17.1253    1.0000 </r>
       <r>  -13.9875    1.0000 </r>
       <r>  -12.4130    1.0000 </r>
       <r>  -12.2330    1.0000 </r>
       <r>  -10.7722    1.0000 </r>
       <r>   -6.4751    1.0000 </r>
       <r>   -4.6691    1.0000 </r>
       <r>   -1.0057    0.0000 </r>
       <r>    1.0547    0.0000 </r>
       <r>    5.0866    0.0000 </r>
       <r>    5.8781    0.0000 </r>
      </set>
      <set comment="kpoint 211">
       <r>  -18.8005    1.0000 </r>
       <r>  -17.1031    1.0000 </r>
       <r>  -14.2112    1.0000 </r>
       <r>  -12.6271    1.0000 </r>
       <r>  -11.9843    1.0000 </r>
       <r>  -10.5638    1.0000 </r>
       <r>   -6.4487    1.0000 </r>
       <r>   -4.6762    1.0000 </r>
       <r>   -1.0366    0.0000 </r>
       <r>    0.9789    0.0000 </r>
       <r>    5.1276    0.0000 </r>
       <r>    5.9263    0.0000 </r>
      </set>
      <set comment="kpoint 212">
       <r>  -18.7519    1.0000 </r>
       <r>  -17.0677    1.0000 </r>
       <r>  -14.4927    1.0000 </r>
       <r>  -12.9039    1.0000 </r>
       <r>  -11.6612    1.0000 </r>
       <r>  -10.2988    1.0000 </r>
       <r>   -6.4051    1.0000 </r>
       <r>   -4.6898    1.0000 </r>
       <r>   -1.0820    0.0000 </r>
       <r>    0.8587    0.0000 </r>
       <r>    5.1957    0.0000 </r>
       <r>    6.0054    0.0000 </r>
      </set>
      <set comment="kpoint 213">
       <r>  -18.6841    1.0000 </r>
       <r>  -17.0216    1.0000 </r>
       <r>  -14.7894    1.0000 </r>
       <r>  -13.2057    1.0000 </r>
       <r>  -11.3060    1.0000 </r>
       <r>  -10.0182    1.0000 </r>
       <r>   -6.3448    1.0000 </r>
       <r>   -4.7121    1.0000 </r>
       <r>   -1.1342    0.0000 </r>
       <r>    0.7019    0.0000 </r>
       <r>    5.2900    0.0000 </r>
       <r>    6.1141    0.0000 </r>
      </set>
      <set comment="kpoint 214">
       <r>  -18.5973    1.0000 </r>
       <r>  -16.9701    1.0000 </r>
       <r>  -15.0776    1.0000 </r>
       <r>  -13.5146    1.0000 </r>
       <r>  -10.9407    1.0000 </r>
       <r>   -9.7449    1.0000 </r>
       <r>   -6.2686    1.0000 </r>
       <r>   -4.7462    1.0000 </r>
       <r>   -1.1836    0.0000 </r>
       <r>    0.5176    0.0000 </r>
       <r>    5.4070    0.0000 </r>
       <r>    6.1826    0.0000 </r>
      </set>
      <set comment="kpoint 215">
       <r>  -18.4920    1.0000 </r>
       <r>  -16.9226    1.0000 </r>
       <r>  -15.3388    1.0000 </r>
       <r>  -13.8209    1.0000 </r>
       <r>  -10.5787    1.0000 </r>
       <r>   -9.4941    1.0000 </r>
       <r>   -6.1774    1.0000 </r>
       <r>   -4.7947    1.0000 </r>
       <r>   -1.2207    0.0000 </r>
       <r>    0.3149    0.0000 </r>
       <r>    5.5112    0.0000 </r>
       <r>    5.7836    0.0000 </r>
      </set>
      <set comment="kpoint 216">
       <r>  -18.3686    1.0000 </r>
       <r>  -16.8964    1.0000 </r>
       <r>  -15.5508    1.0000 </r>
       <r>  -14.1192    1.0000 </r>
       <r>  -10.2305    1.0000 </r>
       <r>   -9.2780    1.0000 </r>
       <r>   -6.0727    1.0000 </r>
       <r>   -4.8601    1.0000 </r>
       <r>   -1.2370    0.0000 </r>
       <r>    0.1022    0.0000 </r>
       <r>    5.3030    0.0000 </r>
       <r>    5.7879    0.0000 </r>
      </set>
      <set comment="kpoint 217">
       <r>  -18.2278    1.0000 </r>
       <r>  -16.9172    1.0000 </r>
       <r>  -15.6853    1.0000 </r>
       <r>  -14.4055    1.0000 </r>
       <r>   -9.9056    1.0000 </r>
       <r>   -9.1071    1.0000 </r>
       <r>   -5.9562    1.0000 </r>
       <r>   -4.9432    1.0000 </r>
       <r>   -1.2260    0.0000 </r>
       <r>   -0.1126    0.0000 </r>
       <r>    5.0102    0.0000 </r>
       <r>    5.8307    0.0000 </r>
      </set>
      <set comment="kpoint 218">
       <r>  -18.0708    1.0000 </r>
       <r>  -17.0043    1.0000 </r>
       <r>  -15.7210    1.0000 </r>
       <r>  -14.6768    1.0000 </r>
       <r>   -9.6134    1.0000 </r>
       <r>   -8.9906    1.0000 </r>
       <r>   -5.8298    1.0000 </r>
       <r>   -5.0435    1.0000 </r>
       <r>   -1.1838    0.0000 </r>
       <r>   -0.3227    0.0000 </r>
       <r>    4.7914    0.0000 </r>
       <r>    5.4312    0.0000 </r>
      </set>
      <set comment="kpoint 219">
       <r>  -17.8991    1.0000 </r>
       <r>  -17.1505    1.0000 </r>
       <r>  -15.6641    1.0000 </r>
       <r>  -14.9300    1.0000 </r>
       <r>   -9.3632    1.0000 </r>
       <r>   -8.9355    1.0000 </r>
       <r>   -5.6964    1.0000 </r>
       <r>   -5.1589    1.0000 </r>
       <r>   -1.1089    0.0000 </r>
       <r>   -0.5219    0.0000 </r>
       <r>    4.6626    0.0000 </r>
       <r>    5.1023    0.0000 </r>
      </set>
      <set comment="kpoint 220">
       <r>  -17.7152    1.0000 </r>
       <r>  -17.3307    1.0000 </r>
       <r>  -15.5391    1.0000 </r>
       <r>  -15.1617    1.0000 </r>
       <r>   -9.1638    1.0000 </r>
       <r>   -8.9460    1.0000 </r>
       <r>   -5.5588    1.0000 </r>
       <r>   -5.2860    1.0000 </r>
       <r>   -1.0023    0.0000 </r>
       <r>   -0.7048    0.0000 </r>
       <r>    4.6298    0.0000 </r>
       <r>    4.8539    0.0000 </r>
      </set>
      <set comment="kpoint 221">
       <r>  -17.5233    1.0000 </r>
       <r>  -17.5233    1.0000 </r>
       <r>  -15.3673    1.0000 </r>
       <r>  -15.3673    1.0000 </r>
       <r>   -9.0229    1.0000 </r>
       <r>   -9.0229    1.0000 </r>
       <r>   -5.4206    1.0000 </r>
       <r>   -5.4206    1.0000 </r>
       <r>   -0.8664    0.0000 </r>
       <r>   -0.8664    0.0000 </r>
       <r>    4.6945    0.0000 </r>
       <r>    4.6945    0.0000 </r>
      </set>
      <set comment="kpoint 222">
       <r>  -18.4355    1.0000 </r>
       <r>  -17.5784    1.0000 </r>
       <r>  -13.5329    1.0000 </r>
       <r>  -12.7475    1.0000 </r>
       <r>  -11.9978    1.0000 </r>
       <r>  -11.2551    1.0000 </r>
       <r>   -6.0426    1.0000 </r>
       <r>   -5.1293    1.0000 </r>
       <r>   -0.5080    0.0000 </r>
       <r>    0.5317    0.0000 </r>
       <r>    5.6475    0.0000 </r>
       <r>    6.4043    0.0000 </r>
      </set>
      <set comment="kpoint 223">
       <r>  -18.4259    1.0000 </r>
       <r>  -17.5697    1.0000 </r>
       <r>  -13.6248    1.0000 </r>
       <r>  -12.8362    1.0000 </r>
       <r>  -11.9003    1.0000 </r>
       <r>  -11.1656    1.0000 </r>
       <r>   -6.0351    1.0000 </r>
       <r>   -5.1267    1.0000 </r>
       <r>   -0.5251    0.0000 </r>
       <r>    0.5078    0.0000 </r>
       <r>    5.6612    0.0000 </r>
       <r>    6.4213    0.0000 </r>
      </set>
      <set comment="kpoint 224">
       <r>  -18.3973    1.0000 </r>
       <r>  -17.5439    1.0000 </r>
       <r>  -13.8504    1.0000 </r>
       <r>  -13.0557    1.0000 </r>
       <r>  -11.6582    1.0000 </r>
       <r>  -10.9442    1.0000 </r>
       <r>   -6.0127    1.0000 </r>
       <r>   -5.1191    1.0000 </r>
       <r>   -0.5744    0.0000 </r>
       <r>    0.4380    0.0000 </r>
       <r>    5.7020    0.0000 </r>
       <r>    6.4719    0.0000 </r>
      </set>
      <set comment="kpoint 225">
       <r>  -18.3498    1.0000 </r>
       <r>  -17.5016    1.0000 </r>
       <r>  -14.1367    1.0000 </r>
       <r>  -13.3377    1.0000 </r>
       <r>  -11.3456    1.0000 </r>
       <r>  -10.6610    1.0000 </r>
       <r>   -5.9758    1.0000 </r>
       <r>   -5.1076    1.0000 </r>
       <r>   -0.6507    0.0000 </r>
       <r>    0.3276    0.0000 </r>
       <r>    5.7696    0.0000 </r>
       <r>    6.5545    0.0000 </r>
      </set>
      <set comment="kpoint 226">
       <r>  -18.2837    1.0000 </r>
       <r>  -17.4436    1.0000 </r>
       <r>  -14.4429    1.0000 </r>
       <r>  -13.6434    1.0000 </r>
       <r>  -11.0049    1.0000 </r>
       <r>  -10.3578    1.0000 </r>
       <r>   -5.9252    1.0000 </r>
       <r>   -5.0942    1.0000 </r>
       <r>   -0.7458    0.0000 </r>
       <r>    0.1846    0.0000 </r>
       <r>    5.8623    0.0000 </r>
       <r>    6.6674    0.0000 </r>
      </set>
      <set comment="kpoint 227">
       <r>  -18.1993    1.0000 </r>
       <r>  -17.3719    1.0000 </r>
       <r>  -14.7489    1.0000 </r>
       <r>  -13.9546    1.0000 </r>
       <r>  -10.6580    1.0000 </r>
       <r>  -10.0570    1.0000 </r>
       <r>   -5.8622    1.0000 </r>
       <r>   -5.0813    1.0000 </r>
       <r>   -0.8502    0.0000 </r>
       <r>    0.0179    0.0000 </r>
       <r>    5.9701    0.0000 </r>
       <r>    6.4531    0.0000 </r>
      </set>
      <set comment="kpoint 228">
       <r>  -18.0973    1.0000 </r>
       <r>  -17.2897    1.0000 </r>
       <r>  -15.0427    1.0000 </r>
       <r>  -14.2616    1.0000 </r>
       <r>  -10.3189    1.0000 </r>
       <r>   -9.7735    1.0000 </r>
       <r>   -5.7882    1.0000 </r>
       <r>   -5.0722    1.0000 </r>
       <r>   -0.9535    0.0000 </r>
       <r>   -0.1629    0.0000 </r>
       <r>    5.8919    0.0000 </r>
       <r>    6.2028    0.0000 </r>
      </set>
      <set comment="kpoint 229">
       <r>  -17.9787    1.0000 </r>
       <r>  -17.2026    1.0000 </r>
       <r>  -15.3138    1.0000 </r>
       <r>  -14.5585    1.0000 </r>
       <r>   -9.9984    1.0000 </r>
       <r>   -9.5192    1.0000 </r>
       <r>   -5.7054    1.0000 </r>
       <r>   -5.0704    1.0000 </r>
       <r>   -1.0455    0.0000 </r>
       <r>   -0.3487    0.0000 </r>
       <r>    5.5041    0.0000 </r>
       <r>    5.9960    0.0000 </r>
      </set>
      <set comment="kpoint 230">
       <r>  -17.8448    1.0000 </r>
       <r>  -17.1211    1.0000 </r>
       <r>  -15.5487    1.0000 </r>
       <r>  -14.8408    1.0000 </r>
       <r>   -9.7066    1.0000 </r>
       <r>   -9.3045    1.0000 </r>
       <r>   -5.6162    1.0000 </r>
       <r>   -5.0793    1.0000 </r>
       <r>   -1.1170    0.0000 </r>
       <r>   -0.5310    0.0000 </r>
       <r>    5.1571    0.0000 </r>
       <r>    5.5688    0.0000 </r>
      </set>
      <set comment="kpoint 231">
       <r>  -17.6980    1.0000 </r>
       <r>  -17.0638    1.0000 </r>
       <r>  -15.7271    1.0000 </r>
       <r>  -15.1043    1.0000 </r>
       <r>   -9.4530    1.0000 </r>
       <r>   -9.1392    1.0000 </r>
       <r>   -5.5236    1.0000 </r>
       <r>   -5.1019    1.0000 </r>
       <r>   -1.1603    0.0000 </r>
       <r>   -0.7021    0.0000 </r>
       <r>    4.8860    0.0000 </r>
       <r>    5.2077    0.0000 </r>
      </set>
      <set comment="kpoint 232">
       <r>  -17.5421    1.0000 </r>
       <r>  -17.0570    1.0000 </r>
       <r>  -15.8216    1.0000 </r>
       <r>  -15.3439    1.0000 </r>
       <r>   -9.2470    1.0000 </r>
       <r>   -9.0314    1.0000 </r>
       <r>   -5.4312    1.0000 </r>
       <r>   -5.1401    1.0000 </r>
       <r>   -1.1699    0.0000 </r>
       <r>   -0.8547    0.0000 </r>
       <r>    4.7021    0.0000 </r>
       <r>    4.9234    0.0000 </r>
      </set>
      <set comment="kpoint 233">
       <r>  -17.3838    1.0000 </r>
       <r>  -17.1178    1.0000 </r>
       <r>  -15.8143    1.0000 </r>
       <r>  -15.5520    1.0000 </r>
       <r>   -9.0969    1.0000 </r>
       <r>   -8.9870    1.0000 </r>
       <r>   -5.3429    1.0000 </r>
       <r>   -5.1942    1.0000 </r>
       <r>   -1.1432    0.0000 </r>
       <r>   -0.9825    0.0000 </r>
       <r>    4.6124    0.0000 </r>
       <r>    4.7252    0.0000 </r>
      </set>
      <set comment="kpoint 234">
       <r>  -17.2355    1.0000 </r>
       <r>  -17.2355    1.0000 </r>
       <r>  -15.7158    1.0000 </r>
       <r>  -15.7158    1.0000 </r>
       <r>   -9.0089    1.0000 </r>
       <r>   -9.0089    1.0000 </r>
       <r>   -5.2627    1.0000 </r>
       <r>   -5.2627    1.0000 </r>
       <r>   -1.0800    0.0000 </r>
       <r>   -1.0800    0.0000 </r>
       <r>    4.6202    0.0000 </r>
       <r>    4.6202    0.0000 </r>
      </set>
      <set comment="kpoint 235">
       <r>  -18.0141    1.0000 </r>
       <r>  -18.0141    1.0000 </r>
       <r>  -13.1497    1.0000 </r>
       <r>  -13.1497    1.0000 </r>
       <r>  -11.6369    1.0000 </r>
       <r>  -11.6369    1.0000 </r>
       <r>   -5.5896    1.0000 </r>
       <r>   -5.5896    1.0000 </r>
       <r>    0.0014    0.0000 </r>
       <r>    0.0014    0.0000 </r>
       <r>    6.2515    0.0000 </r>
       <r>    6.2515    0.0000 </r>
      </set>
      <set comment="kpoint 236">
       <r>  -18.0049    1.0000 </r>
       <r>  -18.0049    1.0000 </r>
       <r>  -13.2405    1.0000 </r>
       <r>  -13.2405    1.0000 </r>
       <r>  -11.5430    1.0000 </r>
       <r>  -11.5430    1.0000 </r>
       <r>   -5.5840    1.0000 </r>
       <r>   -5.5840    1.0000 </r>
       <r>   -0.0197    0.0000 </r>
       <r>   -0.0197    0.0000 </r>
       <r>    6.2651    0.0000 </r>
       <r>    6.2651    0.0000 </r>
      </set>
      <set comment="kpoint 237">
       <r>  -17.9773    1.0000 </r>
       <r>  -17.9773    1.0000 </r>
       <r>  -13.4642    1.0000 </r>
       <r>  -13.4642    1.0000 </r>
       <r>  -11.3101    1.0000 </r>
       <r>  -11.3101    1.0000 </r>
       <r>   -5.5674    1.0000 </r>
       <r>   -5.5674    1.0000 </r>
       <r>   -0.0812    0.0000 </r>
       <r>   -0.0812    0.0000 </r>
       <r>    6.3056    0.0000 </r>
       <r>    6.3056    0.0000 </r>
      </set>
      <set comment="kpoint 238">
       <r>  -17.9316    1.0000 </r>
       <r>  -17.9316    1.0000 </r>
       <r>  -13.7497    1.0000 </r>
       <r>  -13.7497    1.0000 </r>
       <r>  -11.0110    1.0000 </r>
       <r>  -11.0110    1.0000 </r>
       <r>   -5.5405    1.0000 </r>
       <r>   -5.5405    1.0000 </r>
       <r>   -0.1776    0.0000 </r>
       <r>   -0.1776    0.0000 </r>
       <r>    6.3724    0.0000 </r>
       <r>    6.3724    0.0000 </r>
      </set>
      <set comment="kpoint 239">
       <r>  -17.8683    1.0000 </r>
       <r>  -17.8683    1.0000 </r>
       <r>  -14.0575    1.0000 </r>
       <r>  -14.0575    1.0000 </r>
       <r>  -10.6877    1.0000 </r>
       <r>  -10.6877    1.0000 </r>
       <r>   -5.5045    1.0000 </r>
       <r>   -5.5045    1.0000 </r>
       <r>   -0.3013    0.0000 </r>
       <r>   -0.3013    0.0000 </r>
       <r>    6.4620    0.0000 </r>
       <r>    6.4620    0.0000 </r>
      </set>
      <set comment="kpoint 240">
       <r>  -17.7881    1.0000 </r>
       <r>  -17.7881    1.0000 </r>
       <r>  -14.3686    1.0000 </r>
       <r>  -14.3686    1.0000 </r>
       <r>  -10.3624    1.0000 </r>
       <r>  -10.3624    1.0000 </r>
       <r>   -5.4613    1.0000 </r>
       <r>   -5.4613    1.0000 </r>
       <r>   -0.4427    0.0000 </r>
       <r>   -0.4427    0.0000 </r>
       <r>    6.5303    0.0000 </r>
       <r>    6.5303    0.0000 </r>
      </set>
      <set comment="kpoint 241">
       <r>  -17.6924    1.0000 </r>
       <r>  -17.6924    1.0000 </r>
       <r>  -14.6729    1.0000 </r>
       <r>  -14.6729    1.0000 </r>
       <r>  -10.0495    1.0000 </r>
       <r>  -10.0495    1.0000 </r>
       <r>   -5.4131    1.0000 </r>
       <r>   -5.4131    1.0000 </r>
       <r>   -0.5919    0.0000 </r>
       <r>   -0.5919    0.0000 </r>
       <r>    6.1788    0.0000 </r>
       <r>    6.1788    0.0000 </r>
      </set>
      <set comment="kpoint 242">
       <r>  -17.5831    1.0000 </r>
       <r>  -17.5831    1.0000 </r>
       <r>  -14.9635    1.0000 </r>
       <r>  -14.9635    1.0000 </r>
       <r>   -9.7603    1.0000 </r>
       <r>   -9.7603    1.0000 </r>
       <r>   -5.3630    1.0000 </r>
       <r>   -5.3630    1.0000 </r>
       <r>   -0.7393    0.0000 </r>
       <r>   -0.7393    0.0000 </r>
       <r>    5.7338    0.0000 </r>
       <r>    5.7338    0.0000 </r>
      </set>
      <set comment="kpoint 243">
       <r>  -17.4639    1.0000 </r>
       <r>  -17.4639    1.0000 </r>
       <r>  -15.2338    1.0000 </r>
       <r>  -15.2338    1.0000 </r>
       <r>   -9.5052    1.0000 </r>
       <r>   -9.5052    1.0000 </r>
       <r>   -5.3142    1.0000 </r>
       <r>   -5.3142    1.0000 </r>
       <r>   -0.8753    0.0000 </r>
       <r>   -0.8753    0.0000 </r>
       <r>    5.3436    0.0000 </r>
       <r>    5.3436    0.0000 </r>
      </set>
      <set comment="kpoint 244">
       <r>  -17.3410    1.0000 </r>
       <r>  -17.3410    1.0000 </r>
       <r>  -15.4758    1.0000 </r>
       <r>  -15.4758    1.0000 </r>
       <r>   -9.2941    1.0000 </r>
       <r>   -9.2941    1.0000 </r>
       <r>   -5.2706    1.0000 </r>
       <r>   -5.2706    1.0000 </r>
       <r>   -0.9915    0.0000 </r>
       <r>   -0.9915    0.0000 </r>
       <r>    5.0252    0.0000 </r>
       <r>    5.0252    0.0000 </r>
      </set>
      <set comment="kpoint 245">
       <r>  -17.2256    1.0000 </r>
       <r>  -17.2256    1.0000 </r>
       <r>  -15.6769    1.0000 </r>
       <r>  -15.6769    1.0000 </r>
       <r>   -9.1358    1.0000 </r>
       <r>   -9.1358    1.0000 </r>
       <r>   -5.2359    1.0000 </r>
       <r>   -5.2359    1.0000 </r>
       <r>   -1.0805    0.0000 </r>
       <r>   -1.0805    0.0000 </r>
       <r>    4.7894    0.0000 </r>
       <r>    4.7894    0.0000 </r>
      </set>
      <set comment="kpoint 246">
       <r>  -17.1377    1.0000 </r>
       <r>  -17.1377    1.0000 </r>
       <r>  -15.8166    1.0000 </r>
       <r>  -15.8166    1.0000 </r>
       <r>   -9.0375    1.0000 </r>
       <r>   -9.0375    1.0000 </r>
       <r>   -5.2136    1.0000 </r>
       <r>   -5.2136    1.0000 </r>
       <r>   -1.1365    0.0000 </r>
       <r>   -1.1365    0.0000 </r>
       <r>    4.6443    0.0000 </r>
       <r>    4.6443    0.0000 </r>
      </set>
      <set comment="kpoint 247">
       <r>  -17.1036    1.0000 </r>
       <r>  -17.1036    1.0000 </r>
       <r>  -15.8679    1.0000 </r>
       <r>  -15.8679    1.0000 </r>
       <r>   -9.0042    1.0000 </r>
       <r>   -9.0042    1.0000 </r>
       <r>   -5.2059    1.0000 </r>
       <r>   -5.2059    1.0000 </r>
       <r>   -1.1556    0.0000 </r>
       <r>   -1.1556    0.0000 </r>
       <r>    4.5953    0.0000 </r>
       <r>    4.5953    0.0000 </r>
      </set>
     </set>
    </set>
   </array>
  </eigenvalues>
  <separator name="orbital magnetization" >
   <v name="MAGDIPOLOUT">      0.00000000      0.00000000      0.00000000</v>
  </separator>
 </calculation>
 <structure name="finalpos" >
  <crystal>
   <varray name="basis" >
    <v>       4.25839085       0.00000000       0.00000000 </v>
    <v>       0.00000000       2.51726457       0.00000000 </v>
    <v>       0.00000000       0.00000000      19.66863861 </v>
   </varray>
   <i name="volume">    210.83790140 </i>
   <varray name="rec_basis" >
    <v>       0.23483049       0.00000000       0.00000000 </v>
    <v>       0.00000000       0.39725661       0.00000000 </v>
    <v>       0.00000000       0.00000000       0.05084236 </v>
   </varray>
  </crystal>
  <varray name="positions" >
   <v>       0.00052417       0.00000000      -0.00000000 </v>
   <v>       0.16614249       0.50000000       0.00000000 </v>
   <v>       0.50052417       0.50000000      -0.00000000 </v>
   <v>       0.66614249       0.00000000       0.00000000 </v>
  </varray>
 </structure>
</modeling>
