gr                                      
           1
     4.258391    0.000000    0.000000
     0.000000    2.517265    0.000000
     0.000000    0.000000   19.668639
   C 
   4
Direct configuration=     1
   0.00051919  0.00000000  0.00000000
   0.16614747  0.50000000  0.00000000
   0.50051919  0.50000000  0.00000000
   0.66614747  0.00000000  0.00000000
Direct configuration=     2
   0.00054429 -0.00000000  0.00000000
   0.16612238  0.50000000  0.00000000
   0.50054429  0.50000000  0.00000000
   0.66612238  0.00000000  0.00000000
Direct configuration=     3
   0.00052418 -0.00000000  0.00000000
   0.16614249  0.50000000  0.00000000
   0.50052418  0.50000000  0.00000000
   0.66614249  0.00000000  0.00000000
Direct configuration=     4
   0.00052417  0.00000000 -0.00000000
   0.16614250  0.50000000  0.00000000
   0.50052417  0.50000000 -0.00000000
   0.66614250  0.00000000  0.00000000
Direct configuration=     5
   0.00052417  0.00000000 -0.00000000
   0.16614249  0.50000000  0.00000000
   0.50052417  0.50000000 -0.00000000
   0.66614249  0.00000000  0.00000000
