    4    4  400    1
  0.5270948E+02  0.4251864E-09  0.2541322E-09  0.1951235E-08  0.5000000E-15
  1.000000000000000E-004
  CAR 
 gr                                      
     16    247     12
 
  0.0000000E+00  0.0000000E+00  0.0000000E+00  0.1157407E-02
    1      -22.047530
    2      -16.642583
    3      -15.844947
    4      -10.199833
    5       -9.529347
    6       -6.024075
    7       -5.739185
    8       -4.864276
    9       -1.160392
   10        0.548917
   11        1.346349
   12        1.740431
 
  0.4166667E-01  0.0000000E+00  0.0000000E+00  0.2314815E-02
    1      -22.037135
    2      -16.846245
    3      -15.626335
    4      -10.187512
    5       -9.518890
    6       -6.048054
    7       -5.778848
    8       -4.935246
    9       -1.074872
   10        0.562998
   11        1.360566
   12        1.754830
 
  0.8333333E-01  0.0000000E+00  0.0000000E+00  0.2314815E-02
    1      -22.005953
    2      -17.218697
    3      -15.209122
    4      -10.150568
    5       -9.487569
    6       -6.118594
    7       -5.896441
    8       -5.130455
    9       -0.836191
   10        0.605238
   11        1.403214
   12        1.798087
 
  0.1250000E+00  0.0000000E+00  0.0000000E+00  0.2314815E-02
    1      -21.954006
    2      -17.614633
    3      -14.738905
    4      -10.089057
    5       -9.435534
    6       -6.231755
    7       -6.087973
    8       -5.411859
    9       -0.482928
   10        0.675631
   11        1.474282
   12        1.870033
 
  0.1666667E+00  0.0000000E+00  0.0000000E+00  0.2314815E-02
    1      -21.881327
    2      -18.006171
    3      -14.244049
    4      -10.003077
    5       -9.363040
    6       -6.381718
    7       -6.347384
    8       -5.743678
    9       -0.051763
   10        0.774166
   11        1.573750
   12        1.970820
 
  0.2083333E+00  0.0000000E+00  0.0000000E+00  0.2314815E-02
    1      -21.787968
    2      -18.385675
    3      -13.732895
    4       -9.892767
    5       -9.270455
    6       -6.667261
    7       -6.561608
    8       -6.100608
    9        0.430741
   10        0.900827
   11        1.701589
   12        2.100412
 
  0.2500000E+00  0.0000000E+00  0.0000000E+00  0.2314815E-02
    1      -21.673991
    2      -18.750112
    3      -13.209401
    4       -9.758315
    5       -9.158275
    6       -7.039546
    7       -6.764271
    8       -6.466438
    9        0.946745
   10        1.055588
   11        1.857758
   12        2.258789
 
  0.2916667E+00  0.0000000E+00  0.0000000E+00  0.2314815E-02
    1      -21.539478
    2      -19.097933
    3      -12.676291
    4       -9.599963
    5       -9.027136
    6       -7.456119
    7       -6.982836
    8       -6.830929
    9        1.238415
   10        1.483985
   11        2.042196
   12        2.445955
 
  0.3333333E+00  0.0000000E+00  0.0000000E+00  0.2314815E-02
    1      -21.384525
    2      -19.428200
    3      -12.135961
    4       -9.418016
    5       -8.877841
    6       -7.909212
    7       -7.211057
    8       -7.187472
    9        1.449259
   10        2.033378
   11        2.254812
   12        2.661894
 
  0.3750000E+00  0.0000000E+00  0.0000000E+00  0.2314815E-02
    1      -21.209248
    2      -19.740268
    3      -11.590826
    4       -9.212856
    5       -8.711385
    6       -8.391660
    7       -7.531649
    8       -7.443465
    9        1.688056
   10        2.495459
   11        2.587316
   12        2.906633
 
  0.4166667E+00  0.0000000E+00  0.0000000E+00  0.2314815E-02
    1      -21.013781
    2      -20.033655
    3      -11.043495
    4       -8.984955
    5       -8.897014
    6       -8.528993
    7       -7.860405
    8       -7.675388
    9        1.954711
   10        2.763852
   11        3.137056
   12        3.180054
 
  0.4583333E+00  0.0000000E+00  0.0000000E+00  0.2314815E-02
    1      -20.798283
    2      -20.307982
    3      -10.496885
    4       -9.419566
    5       -8.734907
    6       -8.332161
    7       -8.171546
    8       -7.902896
    9        2.249074
   10        2.919508
   11        3.059249
   12        3.484945
 
  0.5000000E+00  0.0000000E+00  0.0000000E+00  0.1157407E-02
    1      -20.562944
    2      -20.562944
    3       -9.954310
    4       -9.954310
    5       -8.463455
    6       -8.463455
    7       -8.122721
    8       -8.122721
    9        2.570879
   10        2.570879
   11        3.378228
   12        3.378243
 
  0.0000000E+00  0.2777778E-01  0.0000000E+00  0.2314815E-02
    1      -22.034643
    2      -16.631443
    3      -15.834822
    4      -10.184559
    5       -9.586885
    6       -6.077131
    7       -5.771673
    8       -4.848692
    9       -1.166964
   10        0.566334
   11        1.364027
   12        1.758346
 
  0.4166667E-01  0.2777778E-01  0.0000000E+00  0.4629630E-02
    1      -22.024248
    2      -16.835028
    3      -15.616351
    4      -10.172243
    5       -9.576394
    6       -6.103892
    7       -5.807810
    8       -4.919848
    9       -1.081393
   10        0.580417
   11        1.378243
   12        1.772730
 
  0.8333333E-01  0.2777778E-01  0.0000000E+00  0.4629630E-02
    1      -21.993071
    2      -17.207291
    3      -15.199522
    4      -10.135312
    5       -9.544968
    6       -6.183563
    7       -5.914176
    8       -5.115468
    9       -0.842703
   10        0.622662
   11        1.420887
   12        1.815939
 
  0.1250000E+00  0.2777778E-01  0.0000000E+00  0.4629630E-02
    1      -21.941130
    2      -17.603024
    3      -14.729841
    4      -10.073824
    5       -9.492752
    6       -6.315803
    7       -6.083533
    8       -5.397274
    9       -0.489712
   10        0.693063
   11        1.491949
   12        1.887928
 
  0.1666667E+00  0.2777778E-01  0.0000000E+00  0.4629630E-02
    1      -21.868462
    2      -17.994378
    3      -14.235657
    4       -9.987876
    5       -9.419989
    6       -6.506036
    7       -6.299025
    8       -5.729371
    9       -0.059212
   10        0.791610
   11        1.591409
   12        1.988724
 
  0.2083333E+00  0.2777778E-01  0.0000000E+00  0.4629630E-02
    1      -21.775117
    2      -18.373718
    3      -13.725327
    4       -9.877608
    5       -9.327033
    6       -6.769071
    7       -6.531969
    8       -6.086448
    9        0.422226
   10        0.918284
   11        1.719237
   12        2.118321
 
  0.2500000E+00  0.2777778E-01  0.0000000E+00  0.4629630E-02
    1      -21.661157
    2      -18.738012
    3      -13.202839
    4       -9.743208
    5       -9.214356
    6       -7.107093
    7       -6.765265
    8       -6.452324
    9        0.936799
   10        1.073059
   11        1.875394
   12        2.276700
 
  0.2916667E+00  0.2777778E-01  0.0000000E+00  0.4629630E-02
    1      -21.526667
    2      -19.085710
    3      -12.670956
    4       -9.584916
    5       -9.082566
    6       -7.503375
    7       -7.000830
    8       -6.816792
    9        1.255900
   10        1.472292
   11        2.059818
   12        2.463878
 
  0.3333333E+00  0.2777778E-01  0.0000000E+00  0.4629630E-02
    1      -21.371740
    2      -19.415871
    3      -12.132127
    4       -9.403039
    5       -8.932427
    6       -7.943021
    7       -7.239621
    8       -7.173269
    9        1.466761
   10        2.019682
   11        2.272420
   12        2.679816
 
  0.3750000E+00  0.2777778E-01  0.0000000E+00  0.4629630E-02
    1      -21.196493
    2      -19.727847
    3      -11.588839
    4       -9.197957
    5       -8.764882
    6       -8.415776
    7       -7.517355
    8       -7.479265
    9        1.705578
   10        2.513058
   11        2.571492
   12        2.924519
 
  0.4166667E+00  0.2777778E-01  0.0000000E+00  0.4629630E-02
    1      -21.001062
    2      -20.021155
    3      -11.043789
    4       -8.970144
    5       -8.913811
    6       -8.581090
    7       -7.846007
    8       -7.716435
    9        1.972257
   10        2.781453
   11        3.119629
   12        3.197932
 
  0.4583333E+00  0.2777778E-01  0.0000000E+00  0.4629630E-02
    1      -20.785608
    2      -20.295414
    3      -10.500013
    4       -9.430693
    5       -8.720192
    6       -8.382461
    7       -8.157040
    8       -7.947875
    9        2.266659
   10        2.937346
   11        3.076885
   12        3.499981
 
  0.5000000E+00  0.2777778E-01  0.0000000E+00  0.2314815E-02
    1      -20.550318
    2      -20.550318
    3       -9.960979
    4       -9.960979
    5       -8.448842
    6       -8.448842
    7       -8.170703
    8       -8.170703
    9        2.588537
   10        2.588537
   11        3.395917
   12        3.395919
 
  0.0000000E+00  0.5555556E-01  0.0000000E+00  0.2314815E-02
    1      -21.995991
    2      -16.598026
    3      -15.804669
    4      -10.138770
    5       -9.754720
    6       -6.232179
    7       -5.868052
    8       -4.801960
    9       -1.187451
   10        0.618596
   11        1.417053
   12        1.812032
 
  0.4166667E-01  0.5555556E-01  0.0000000E+00  0.4629630E-02
    1      -21.985601
    2      -16.801404
    3      -15.586604
    4      -10.126467
    5       -9.744119
    6       -6.265072
    7       -5.895894
    8       -4.873690
    9       -1.101713
   10        0.632683
   11        1.431265
   12        1.826438
 
  0.8333333E-01  0.5555556E-01  0.0000000E+00  0.4629630E-02
    1      -21.954436
    2      -17.173110
    3      -15.170937
    4      -10.089578
    5       -9.712358
    6       -6.361521
    7       -5.979376
    8       -5.070579
    9       -0.862979
   10        0.674940
   11        1.473898
   12        1.869633
 
  0.1250000E+00  0.5555556E-01  0.0000000E+00  0.4629630E-02
    1      -21.902517
    2      -17.568236
    3      -14.702903
    4      -10.028160
    5       -9.659560
    6       -6.516306
    7       -6.117127
    8       -5.353616
    9       -0.510801
   10        0.745362
   11        1.544941
   12        1.941636
 
  0.1666667E+00  0.5555556E-01  0.0000000E+00  0.4629630E-02
    1      -21.829882
    2      -17.959028
    3      -14.210797
    4       -9.942310
    5       -9.585933
    6       -6.724270
    7       -6.304143
    8       -5.686559
    9       -0.082321
   10        0.843937
   11        1.644374
   12        2.042438
 
  0.2083333E+00  0.5555556E-01  0.0000000E+00  0.4629630E-02
    1      -21.736578
    2      -18.337874
    3      -13.703026
    4       -9.832168
    5       -9.491778
    6       -6.982641
    7       -6.530516
    8       -6.044079
    9        0.395879
   10        0.970643
   11        1.772170
   12        2.172037
 
  0.2500000E+00  0.5555556E-01  0.0000000E+00  0.4629630E-02
    1      -21.622671
    2      -18.701737
    3      -13.183673
    4       -9.697923
    5       -9.377493
    6       -7.291094
    7       -6.782561
    8       -6.410088
    9        0.906104
   10        1.125456
   11        1.928286
   12        2.330431
 
  0.2916667E+00  0.5555556E-01  0.0000000E+00  0.4629630E-02
    1      -21.488245
    2      -19.049064
    3      -12.655639
    4       -9.539815
    5       -9.243585
    6       -7.649082
    7       -7.046563
    8       -6.774481
    9        1.308338
   10        1.436289
   11        2.112665
   12        2.517613
 
  0.3333333E+00  0.5555556E-01  0.0000000E+00  0.4629630E-02
    1      -21.333396
    2      -19.378903
    3      -12.121553
    4       -9.358150
    5       -9.090684
    6       -8.052946
    7       -7.312485
    8       -7.130751
    9        1.519242
   10        1.977590
   11        2.325223
   12        2.733573
 
  0.3750000E+00  0.5555556E-01  0.0000000E+00  0.4629630E-02
    1      -21.158242
    2      -19.690603
    3      -11.584135
    4       -9.153310
    5       -8.919555
    6       -8.495967
    7       -7.574451
    8       -7.474557
    9        1.758107
   10        2.522837
   11        2.565827
   12        2.978299
 
  0.4166667E+00  0.5555556E-01  0.0000000E+00  0.4629630E-02
    1      -20.962921
    2      -19.983674
    3      -11.046394
    4       -8.970332
    5       -8.925764
    6       -8.731118
    7       -7.829031
    8       -7.802890
    9        2.024848
   10        2.834225
   11        3.064936
   12        3.251760
 
  0.4583333E+00  0.5555556E-01  0.0000000E+00  0.4629630E-02
    1      -20.747595
    2      -20.257729
    3      -10.511772
    4       -9.468607
    5       -8.676104
    6       -8.526463
    7       -8.113593
    8       -8.073825
    9        2.319342
   10        2.990592
   11        3.129763
   12        3.564319
 
  0.5000000E+00  0.5555556E-01  0.0000000E+00  0.2314815E-02
    1      -20.512456
    2      -20.512456
    3       -9.984273
    4       -9.984273
    5       -8.405068
    6       -8.405068
    7       -8.306870
    8       -8.306870
    9        2.641389
   10        2.641389
   11        3.448976
   12        3.448977
 
  0.0000000E+00  0.8333333E-01  0.0000000E+00  0.2314815E-02
    1      -21.931612
    2      -16.542345
    3      -15.755196
    4      -10.062559
    5      -10.019796
    6       -6.478067
    7       -6.025186
    8       -4.724135
    9       -1.224141
   10        0.705731
   11        1.505405
   12        1.901538
 
  0.4166667E-01  0.8333333E-01  0.0000000E+00  0.4629630E-02
    1      -21.921229
    2      -16.745457
    3      -15.537752
    4      -10.050281
    5      -10.008987
    6       -6.517396
    7       -6.043209
    8       -4.796887
    9       -1.138079
   10        0.719821
   11        1.519611
   12        1.915953
 
  0.8333333E-01  0.8333333E-01  0.0000000E+00  0.4629630E-02
    1      -21.890086
    2      -17.116269
    3      -15.124067
    4      -10.013463
    5       -9.976589
    6       -6.629090
    7       -6.101833
    8       -4.996012
    9       -0.899201
   10        0.762091
   11        1.562223
   12        1.959153
 
  0.1250000E+00  0.8333333E-01  0.0000000E+00  0.4629630E-02
    1      -21.838205
    2      -17.510378
    3      -14.658916
    4       -9.952165
    5       -9.922682
    6       -6.800072
    7       -6.208998
    8       -5.281189
    9       -0.548371
   10        0.832535
   11        1.633231
   12        2.031150
 
  0.1666667E+00  0.8333333E-01  0.0000000E+00  0.4629630E-02
    1      -21.765623
    2      -17.900226
    3      -14.170497
    4       -9.866482
    5       -9.847402
    6       -7.018363
    7       -6.368426
    8       -5.615583
    9       -0.123323
   10        0.931140
   11        1.732616
   12        2.131959
 
  0.2083333E+00  0.8333333E-01  0.0000000E+00  0.4629630E-02
    1      -21.672388
    2      -18.278233
    3      -13.667313
    4       -9.756557
    5       -9.750938
    6       -7.275761
    7       -6.577509
    8       -5.973846
    9        0.349355
   10        1.057887
   11        1.860348
   12        2.261577
 
  0.2500000E+00  0.8333333E-01  0.0000000E+00  0.4629630E-02
    1      -21.558571
    2      -18.641369
    3      -13.153644
    4       -9.633532
    5       -9.622578
    6       -7.567980
    7       -6.828004
    8       -6.340063
    9        0.852177
   10        1.212746
   11        2.016388
   12        2.419975
 
  0.2916667E+00  0.8333333E-01  0.0000000E+00  0.4629630E-02
    1      -21.424254
    2      -18.988065
    3      -12.632667
    4       -9.495473
    5       -9.464786
    6       -7.894150
    7       -7.107465
    8       -6.704306
    9        1.373329
   10        1.395679
   11        2.200679
   12        2.607171
 
  0.3333333E+00  0.8333333E-01  0.0000000E+00  0.4629630E-02
    1      -21.269535
    2      -19.317362
    3      -12.107387
    4       -9.337094
    5       -9.283487
    6       -8.255532
    7       -7.401406
    8       -7.060204
    9        1.606638
   10        1.904255
   11        2.413146
   12        2.823152
 
  0.3750000E+00  0.8333333E-01  0.0000000E+00  0.4629630E-02
    1      -21.094537
    2      -19.628595
    3      -11.581028
    4       -9.158755
    5       -9.079060
    6       -8.653162
    7       -7.696300
    8       -7.403514
    9        1.845562
   10        2.438208
   11        2.653670
   12        3.067910
 
  0.4166667E+00  0.8333333E-01  0.0000000E+00  0.4629630E-02
    1      -20.899400
    2      -19.921265
    3      -11.057262
    4       -9.085592
    5       -8.960836
    6       -8.851976
    7       -7.982246
    8       -7.731290
    9        2.112372
   10        2.922050
   11        2.969195
   12        3.341433
 
  0.4583333E+00  0.8333333E-01  0.0000000E+00  0.4629630E-02
    1      -20.684291
    2      -20.194975
    3      -10.540392
    4       -9.548414
    5       -8.743715
    6       -8.602820
    7       -8.253607
    8       -8.041417
    9        2.406963
   10        3.078744
   11        3.217763
   12        3.488362
 
  0.5000000E+00  0.8333333E-01  0.0000000E+00  0.2314815E-02
    1      -20.449406
    2      -20.449406
    3      -10.035486
    4      -10.035486
    5       -8.507792
    6       -8.507792
    7       -8.332325
    8       -8.332325
    9        2.729176
   10        2.729176
   11        3.537373
   12        3.537374
 
  0.0000000E+00  0.1111111E+00  0.0000000E+00  0.2314815E-02
    1      -21.841570
    2      -16.464421
    3      -15.687749
    4      -10.363804
    5       -9.956092
    6       -6.799478
    7       -6.238237
    8       -4.615317
    9       -1.280746
   10        0.827773
   11        1.629047
   12        2.026858
 
  0.4166667E-01  0.1111111E+00  0.0000000E+00  0.4629630E-02
    1      -21.831198
    2      -16.667345
    3      -15.471053
    4      -10.352642
    5       -9.943848
    6       -6.844431
    7       -6.246303
    8       -4.689647
    9       -1.194114
   10        0.841864
   11        1.643242
   12        2.041260
 
  0.8333333E-01  0.1111111E+00  0.0000000E+00  0.4629630E-02
    1      -21.800086
    2      -17.036981
    3      -15.060256
    4      -10.319158
    5       -9.907134
    6       -6.968711
    7       -6.279954
    8       -4.892182
    9       -0.954848
   10        0.884138
   11        1.685820
   12        2.084465
 
  0.1250000E+00  0.1111111E+00  0.0000000E+00  0.4629630E-02
    1      -21.748258
    2      -17.429659
    3      -14.599495
    4      -10.263355
    5       -9.846010
    6       -7.152275
    7       -6.355771
    8       -5.180559
    9       -0.605851
   10        0.954591
   11        1.756772
   12        2.156474
 
  0.1666667E+00  0.1111111E+00  0.0000000E+00  0.4629630E-02
    1      -21.675750
    2      -17.818155
    3      -14.116800
    4      -10.185226
    5       -9.760573
    6       -7.378691
    7       -6.484216
    8       -5.517068
    9       -0.185718
   10        1.053214
   11        1.856076
   12        2.257287
 
  0.2083333E+00  0.1111111E+00  0.0000000E+00  0.4629630E-02
    1      -21.582616
    2      -18.194960
    3      -13.620862
    4      -10.084745
    5       -9.650964
    6       -7.637065
    7       -6.667737
    8       -5.876375
    9        0.279012
   10        1.179989
   11        1.983702
   12        2.386904
 
  0.2500000E+00  0.1111111E+00  0.0000000E+00  0.4629630E-02
    1      -21.468925
    2      -18.557049
    3      -13.116327
    4       -9.961836
    5       -9.517373
    6       -7.920778
    7       -6.902412
    8       -6.242844
    9        0.771196
   10        1.334886
   11        2.139609
   12        2.545321
 
  0.2916667E+00  0.1111111E+00  0.0000000E+00  0.4629630E-02
    1      -21.334760
    2      -18.902842
    3      -12.606906
    4       -9.816344
    5       -9.360043
    6       -8.226639
    7       -7.179500
    8       -6.606817
    9        1.279408
   10        1.517864
   11        2.323743
   12        2.732533
 
  0.3333333E+00  0.1111111E+00  0.0000000E+00  0.4629630E-02
    1      -21.180227
    2      -19.231362
    3      -12.096338
    4       -9.647982
    5       -9.179279
    6       -8.554487
    7       -7.486691
    8       -6.962132
    9        1.728872
   10        1.795494
   11        2.536030
   12        2.948534
 
  0.3750000E+00  0.1111111E+00  0.0000000E+00  0.4629630E-02
    1      -21.005450
    2      -19.541926
    3      -11.588822
    4       -9.456281
    5       -8.975460
    6       -8.906678
    7       -7.809402
    8       -7.304682
    9        1.967846
   10        2.313177
   11        2.776375
   12        3.193321
 
  0.4166667E+00  0.1111111E+00  0.0000000E+00  0.4629630E-02
    1      -20.810573
    2      -19.834022
    3      -11.089269
    4       -9.286761
    5       -9.240557
    6       -8.749055
    7       -8.132664
    8       -7.631618
    9        2.234708
   10        2.827259
   11        3.044633
   12        3.466873
 
  0.4583333E+00  0.1111111E+00  0.0000000E+00  0.4629630E-02
    1      -20.595773
    2      -20.107241
    3      -10.603384
    4       -9.697212
    5       -9.000007
    6       -8.500643
    7       -8.443711
    8       -7.940883
    9        2.529362
   10        3.201457
   11        3.333059
   12        3.340531
 
  0.5000000E+00  0.1111111E+00  0.0000000E+00  0.2314815E-02
    1      -20.361250
    2      -20.361250
    3      -10.137404
    4      -10.137404
    5       -8.734117
    6       -8.734117
    7       -8.230949
    8       -8.230949
    9        2.851676
   10        2.851676
   11        3.660899
   12        3.660921
 
  0.0000000E+00  0.1388889E+00  0.0000000E+00  0.2314815E-02
    1      -21.725959
    2      -16.364284
    3      -15.604616
    4      -10.766251
    5       -9.819600
    6       -7.179957
    7       -6.501132
    8       -4.475643
    9       -1.362178
   10        0.984750
   11        1.787923
   12        2.187999
 
  0.4166667E-01  0.1388889E+00  0.0000000E+00  0.4629630E-02
    1      -21.715599
    2      -16.567333
    3      -15.388651
    4      -10.754502
    5       -9.807403
    6       -7.229724
    7       -6.499411
    8       -4.552304
    9       -1.274555
   10        0.998836
   11        1.802100
   12        2.202400
 
  0.8333333E-01  0.1388889E+00  0.0000000E+00  0.4629630E-02
    1      -21.684528
    2      -16.935593
    3      -14.981849
    4      -10.719208
    5       -9.770831
    6       -7.364662
    7       -6.508086
    8       -4.759774
    9       -1.034372
   10        1.041097
   11        1.844625
   12        2.245603
 
  0.1250000E+00  0.1388889E+00  0.0000000E+00  0.4629630E-02
    1      -21.632768
    2      -17.326409
    3      -14.527513
    4      -10.660216
    5       -9.709944
    6       -7.558924
    7       -6.551203
    8       -5.052640
    9       -0.687561
   10        1.111535
   11        1.915486
   12        2.317609
 
  0.1666667E+00  0.1388889E+00  0.0000000E+00  0.4629630E-02
    1      -21.560360
    2      -17.713109
    3      -14.053435
    4      -10.577241
    5       -9.624839
    6       -7.792756
    7       -6.644944
    8       -5.392009
    9       -0.273854
   10        1.210148
   11        2.014659
   12        2.418422
 
  0.2083333E+00  0.1388889E+00  0.0000000E+00  0.4629630E-02
    1      -21.467355
    2      -18.088310
    3      -13.568674
    4      -10.469820
    5       -9.515661
    6       -8.053591
    7       -6.796060
    8       -5.752650
    9        0.180384
   10        1.336923
   11        2.142108
   12        2.548041
 
  0.2500000E+00  0.1388889E+00  0.0000000E+00  0.4629630E-02
    1      -21.353826
    2      -18.449000
    3      -13.078578
    4      -10.337236
    5       -9.382600
    6       -8.333542
    7       -7.004285
    8       -6.119357
    9        0.658569
   10        1.491833
   11        2.297785
   12        2.706464
 
  0.2916667E+00  0.1388889E+00  0.0000000E+00  0.4629630E-02
    1      -21.219863
    2      -18.793589
    3      -12.587885
    4      -10.178426
    5       -9.225900
    6       -8.627902
    7       -7.264204
    8       -6.482867
    9        1.149861
   10        1.674834
   11        2.481628
   12        2.893689
 
  0.3333333E+00  0.1388889E+00  0.0000000E+00  0.4629630E-02
    1      -21.065572
    2      -19.121073
    3      -12.101706
    4       -9.991889
    5       -9.045868
    6       -8.934552
    7       -7.566584
    8       -6.837304
    9        1.646660
   10        1.885870
   11        2.693552
   12        3.109706
 
  0.3750000E+00  0.1388889E+00  0.0000000E+00  0.4629630E-02
    1      -20.891083
    2      -19.430751
    3      -11.625894
    4       -9.775695
    5       -9.253824
    6       -8.842882
    7       -7.899360
    8       -7.178756
    9        2.124871
   10        2.143240
   11        2.933445
   12        3.354507
 
  0.4166667E+00  0.1388889E+00  0.0000000E+00  0.4629630E-02
    1      -20.696551
    2      -19.722086
    3      -11.166952
    4       -9.588464
    5       -9.527809
    6       -8.617410
    7       -8.248415
    8       -7.504497
    9        2.391755
   10        2.634997
   11        3.201148
   12        3.628083
 
  0.4583333E+00  0.1388889E+00  0.0000000E+00  0.4629630E-02
    1      -20.482155
    2      -19.994656
    3      -10.731187
    4       -9.943149
    5       -9.247107
    6       -8.598553
    7       -8.370025
    8       -7.812551
    9        2.686424
   10        3.117999
   11        3.358586
   12        3.496333
 
  0.5000000E+00  0.1388889E+00  0.0000000E+00  0.2314815E-02
    1      -20.248108
    2      -20.248108
    3      -10.323009
    4      -10.323009
    5       -8.935238
    6       -8.935238
    7       -8.101440
    8       -8.101440
    9        3.008755
   10        3.008755
   11        3.588106
   12        3.588205
 
  0.0000000E+00  0.1666667E+00  0.0000000E+00  0.2314815E-02
    1      -21.584899
    2      -16.241978
    3      -15.509640
    4      -11.206276
    5       -9.653396
    6       -7.604081
    7       -6.807073
    8       -4.305297
    9       -1.474147
   10        1.176667
   11        1.981953
   12        2.384965
 
  0.4166667E-01  0.1666667E+00  0.0000000E+00  0.4629630E-02
    1      -21.574557
    2      -16.445862
    3      -15.294165
    4      -11.193531
    5       -9.641261
    6       -7.658104
    7       -6.795783
    8       -4.385389
    9       -1.384782
   10        1.190743
   11        1.996102
   12        2.399364
 
  0.8333333E-01  0.1666667E+00  0.0000000E+00  0.4629630E-02
    1      -21.543536
    2      -16.812671
    3      -14.892904
    4      -11.155149
    5       -9.604875
    6       -7.802501
    7       -6.779574
    8       -4.599902
    9       -1.142606
   10        1.232973
   11        2.038542
   12        2.442560
 
  0.1250000E+00  0.1666667E+00  0.0000000E+00  0.4629630E-02
    1      -21.491863
    2      -17.201149
    3      -14.448102
    4      -11.090660
    5       -9.544297
    6       -8.006458
    7       -6.788947
    8       -4.898888
    9       -0.798033
   10        1.303366
   11        2.109255
   12        2.514558
 
  0.1666667E+00  0.1666667E+00  0.0000000E+00  0.4629630E-02
    1      -21.419575
    2      -17.585538
    3      -13.987265
    4      -10.999205
    5       -9.459629
    6       -8.247517
    7       -6.845041
    8       -5.241953
    9       -0.392198
   10        1.401930
   11        2.208208
   12        2.615361
 
  0.2083333E+00  0.1666667E+00  0.0000000E+00  0.4629630E-02
    1      -21.326732
    2      -17.958665
    3      -13.520210
    4      -10.879423
    5       -9.351016
    6       -8.511936
    7       -6.958441
    8       -5.604164
    9        0.048991
   10        1.528661
   11        2.335349
   12        2.744973
 
  0.2500000E+00  0.1666667E+00  0.0000000E+00  0.4629630E-02
    1      -21.213407
    2      -18.317550
    3      -13.053648
    4      -10.729306
    5       -9.218651
    6       -8.791133
    7       -7.132201
    8       -5.970982
    9        0.509847
   10        1.683541
   11        2.490605
   12        2.903404
 
  0.2916667E+00  0.1666667E+00  0.0000000E+00  0.4629630E-02
    1      -21.079693
    2      -18.660587
    3      -12.594149
    4      -10.546110
    5       -9.079638
    6       -9.062782
    7       -7.363857
    8       -6.333704
    9        0.980402
   10        1.866526
   11        2.673864
   12        3.090623
 
  0.3333333E+00  0.1666667E+00  0.0000000E+00  0.4629630E-02
    1      -20.925706
    2      -18.986745
    3      -12.148824
    4      -10.326534
    5       -9.374180
    6       -8.883717
    7       -7.646839
    8       -6.686840
    9        1.453844
   10        2.077556
   11        2.884942
   12        3.306651
 
  0.3750000E+00  0.1666667E+00  0.0000000E+00  0.4629630E-02
    1      -20.751580
    2      -19.295288
    3      -11.724815
    4      -10.067616
    5       -9.673383
    6       -8.681837
    7       -7.971612
    8       -7.026730
    9        1.925170
   10        2.316552
   11        3.123462
   12        3.551470
 
  0.4166667E+00  0.1666667E+00  0.0000000E+00  0.4629630E-02
    1      -20.557480
    2      -19.585655
    3      -11.327571
    4       -9.977781
    5       -9.768673
    6       -8.457605
    7       -8.326517
    8       -7.350811
    9        2.390431
   10        2.583421
   11        3.388075
   12        3.825065
 
  0.4583333E+00  0.1666667E+00  0.0000000E+00  0.4629630E-02
    1      -20.343595
    2      -19.857399
    3      -10.958628
    4      -10.289997
    5       -9.433707
    6       -8.698278
    7       -8.211593
    8       -7.657208
    9        2.846176
   10        2.878055
   11        3.550098
   12        3.642218
 
  0.5000000E+00  0.1666667E+00  0.0000000E+00  0.2314815E-02
    1      -20.110149
    2      -20.110149
    3      -10.614819
    4      -10.614819
    5       -9.072353
    6       -9.072353
    7       -7.944503
    8       -7.944503
    9        3.200328
   10        3.200329
   11        3.288282
   12        3.291112
 