       N       E                     dE             d eps       ncg     rms          rms(c)
DAV:   1     0.185904196255E+03    0.18590E+03   -0.10546E+04  5928   0.274E+03
DAV:   2    -0.920228346479E+01   -0.19511E+03   -0.17388E+03 10424   0.260E+02
DAV:   3    -0.380203391395E+02   -0.28818E+02   -0.28242E+02  7420   0.119E+02    0.702E+00
RMM:   4    -0.375301783043E+02    0.49016E+00   -0.94945E+00  5928   0.264E+01    0.408E+00
RMM:   5    -0.368379269480E+02    0.69225E+00   -0.26290E+00  5932   0.111E+01    0.699E-01
RMM:   6    -0.368402140372E+02   -0.22871E-02   -0.86546E-02  6396   0.202E+00    0.498E-01
RMM:   7    -0.368316717479E+02    0.85423E-02   -0.31429E-02  5937   0.154E+00    0.321E-01
RMM:   8    -0.368269512298E+02    0.47205E-02   -0.61090E-03  5931   0.519E-01    0.134E-01
RMM:   9    -0.368267746785E+02    0.17655E-03   -0.19350E-02  5928   0.822E-01    0.150E-01
RMM:  10    -0.368266861248E+02    0.88554E-04   -0.21623E-03  5928   0.335E-01    0.265E-02
RMM:  11    -0.368289068392E+02   -0.22207E-02   -0.62987E-04  5931   0.169E-01    0.422E-02
RMM:  12    -0.368293919231E+02   -0.48508E-03   -0.18272E-04  5954   0.894E-02    0.681E-03
RMM:  13    -0.368296532353E+02   -0.26131E-03   -0.55996E-05  6013   0.410E-02    0.337E-03
RMM:  14    -0.368297335447E+02   -0.80309E-04   -0.10336E-05  5968   0.155E-02    0.102E-03
RMM:  15    -0.368297456737E+02   -0.12129E-04   -0.18504E-06  5980   0.755E-03    0.207E-03
RMM:  16    -0.368297597850E+02   -0.14111E-04   -0.16419E-06  5928   0.836E-03    0.118E-03
RMM:  17    -0.368297656358E+02   -0.58508E-05   -0.10875E-07  6039   0.201E-03    0.748E-04
RMM:  18    -0.368297666704E+02   -0.10346E-05   -0.66009E-08  5928   0.192E-03    0.873E-05
RMM:  19    -0.368297673459E+02   -0.67554E-06   -0.91826E-09  5958   0.452E-04    0.150E-05
RMM:  20    -0.368297673965E+02   -0.50630E-07   -0.80728E-10  4477   0.139E-04    0.200E-05
RMM:  21    -0.368297674078E+02   -0.11302E-07   -0.17391E-10  4300   0.794E-05    0.809E-06
RMM:  22    -0.368297674079E+02   -0.20123E-10   -0.19250E-11  3887   0.491E-05
   1 F= -.36829767E+02 E0= -.36829767E+02  d E =-.368298E+02
       N       E                     dE             d eps       ncg     rms          rms(c)
DAV:   1    -0.368297673363E+02    0.71582E-07   -0.62729E-06  6432   0.236E-02    0.474E-04
RMM:   2    -0.368297673438E+02   -0.75562E-08   -0.10690E-07  5966   0.284E-03    0.350E-04
RMM:   3    -0.368297673460E+02   -0.21899E-08   -0.16693E-08  5993   0.105E-03    0.863E-05
RMM:   4    -0.368297673446E+02    0.14392E-08   -0.10197E-09  5783   0.252E-04    0.254E-05
RMM:   5    -0.368297673451E+02   -0.56173E-09   -0.55850E-11  3850   0.720E-05    0.103E-05
RMM:   6    -0.368297673451E+02   -0.23988E-10   -0.18469E-11  3542   0.465E-05
   2 F= -.36829767E+02 E0= -.36829767E+02  d E =0.627099E-07
       N       E                     dE             d eps       ncg     rms          rms(c)
DAV:   1    -0.368297674184E+02   -0.73310E-07   -0.39902E-06  6448   0.188E-02    0.380E-04
RMM:   2    -0.368297674201E+02   -0.16546E-08   -0.64386E-08  5963   0.226E-03    0.278E-04
RMM:   3    -0.368297674146E+02    0.54713E-08   -0.10245E-08  5978   0.822E-04    0.640E-05
RMM:   4    -0.368297674151E+02   -0.47373E-09   -0.58642E-10  5236   0.196E-04    0.202E-05
RMM:   5    -0.368297674143E+02    0.74249E-09   -0.32240E-11  3730   0.650E-05    0.869E-06
RMM:   6    -0.368297674144E+02   -0.19782E-10   -0.16268E-11  3407   0.438E-05
   3 F= -.36829767E+02 E0= -.36829767E+02  d E =-.692204E-07
