<?xml version="1.0" encoding="ISO-8859-1"?>
<modeling>
 <generator>
  <i name="program" type="string">vasp </i>
  <i name="version" type="string">5.3.5  </i>
  <i name="subversion" type="string">31Mar14 (build Mar 02 2015 18:14:16) complex                          parallel </i>
  <i name="platform" type="string">LinuxIFC </i>
  <i name="date" type="string">2018 08 10 </i>
  <i name="time" type="string">14:55:06 </i>
 </generator>
 <incar>
  <i type="string" name="SYSTEM">  gr</i>
  <i type="string" name="PREC">accurate : accuracy</i>
  <i type="string" name="ALGO"> FAST.</i>
  <i type="int" name="NELM">   100</i>
  <i type="int" name="NELMDL">    -3</i>
  <i type="int" name="NELMIN">     5</i>
  <i type="int" name="IBRION">     1</i>
  <i name="EDIFF">      0.00000000</i>
  <i name="EDIFFG">     -0.00000100</i>
  <i type="int" name="NSW">   400</i>
  <i type="int" name="ISIF">     2</i>
  <i name="ENCUT">   2000.00000000</i>
  <i type="int" name="ISMEAR">     0</i>
  <i name="SIGMA">      0.05000000</i>
  <i type="int" name="NWRITE">     2</i>
  <i type="logical" name="LWAVE"> F  </i>
  <i type="logical" name="LCHARG"> F  </i>
  <i type="int" name="NELM">   100</i>
 </incar>
 <kpoints>
  <generation param="Gamma">
   <v type="int" name="divisions">      24       36        1 </v>
   <v name="usershift">      0.00000000       0.00000000       0.00000000 </v>
   <v name="genvec1">      0.04166667       0.00000000       0.00000000 </v>
   <v name="genvec2">      0.00000000       0.02777778       0.00000000 </v>
   <v name="genvec3">      0.00000000       0.00000000       1.00000000 </v>
   <v name="shift">      0.00000000       0.00000000       0.00000000 </v>
  </generation>
  <varray name="kpointlist" >
   <v>       0.00000000       0.00000000       0.00000000 </v>
   <v>       0.04166667       0.00000000       0.00000000 </v>
   <v>       0.08333333       0.00000000       0.00000000 </v>
   <v>       0.12500000       0.00000000       0.00000000 </v>
   <v>       0.16666667       0.00000000       0.00000000 </v>
   <v>       0.20833333       0.00000000       0.00000000 </v>
   <v>       0.25000000       0.00000000       0.00000000 </v>
   <v>       0.29166667       0.00000000       0.00000000 </v>
   <v>       0.33333333       0.00000000       0.00000000 </v>
   <v>       0.37500000       0.00000000       0.00000000 </v>
   <v>       0.41666667       0.00000000       0.00000000 </v>
   <v>       0.45833333       0.00000000       0.00000000 </v>
   <v>       0.50000000       0.00000000       0.00000000 </v>
   <v>       0.00000000       0.02777778       0.00000000 </v>
   <v>       0.04166667       0.02777778       0.00000000 </v>
   <v>       0.08333333       0.02777778       0.00000000 </v>
   <v>       0.12500000       0.02777778       0.00000000 </v>
   <v>       0.16666667       0.02777778       0.00000000 </v>
   <v>       0.20833333       0.02777778       0.00000000 </v>
   <v>       0.25000000       0.02777778       0.00000000 </v>
   <v>       0.29166667       0.02777778       0.00000000 </v>
   <v>       0.33333333       0.02777778       0.00000000 </v>
   <v>       0.37500000       0.02777778       0.00000000 </v>
   <v>       0.41666667       0.02777778       0.00000000 </v>
   <v>       0.45833333       0.02777778       0.00000000 </v>
   <v>       0.50000000       0.02777778       0.00000000 </v>
   <v>       0.00000000       0.05555556       0.00000000 </v>
   <v>       0.04166667       0.05555556       0.00000000 </v>
   <v>       0.08333333       0.05555556       0.00000000 </v>
   <v>       0.12500000       0.05555556       0.00000000 </v>
   <v>       0.16666667       0.05555556       0.00000000 </v>
   <v>       0.20833333       0.05555556       0.00000000 </v>
   <v>       0.25000000       0.05555556       0.00000000 </v>
   <v>       0.29166667       0.05555556       0.00000000 </v>
   <v>       0.33333333       0.05555556       0.00000000 </v>
   <v>       0.37500000       0.05555556       0.00000000 </v>
   <v>       0.41666667       0.05555556       0.00000000 </v>
   <v>       0.45833333       0.05555556       0.00000000 </v>
   <v>       0.50000000       0.05555556       0.00000000 </v>
   <v>       0.00000000       0.08333333       0.00000000 </v>
   <v>       0.04166667       0.08333333       0.00000000 </v>
   <v>       0.08333333       0.08333333       0.00000000 </v>
   <v>       0.12500000       0.08333333       0.00000000 </v>
   <v>       0.16666667       0.08333333       0.00000000 </v>
   <v>       0.20833333       0.08333333       0.00000000 </v>
   <v>       0.25000000       0.08333333       0.00000000 </v>
   <v>       0.29166667       0.08333333       0.00000000 </v>
   <v>       0.33333333       0.08333333       0.00000000 </v>
   <v>       0.37500000       0.08333333       0.00000000 </v>
   <v>       0.41666667       0.08333333       0.00000000 </v>
   <v>       0.45833333       0.08333333       0.00000000 </v>
   <v>       0.50000000       0.08333333       0.00000000 </v>
   <v>       0.00000000       0.11111111       0.00000000 </v>
   <v>       0.04166667       0.11111111       0.00000000 </v>
   <v>       0.08333333       0.11111111       0.00000000 </v>
   <v>       0.12500000       0.11111111       0.00000000 </v>
   <v>       0.16666667       0.11111111       0.00000000 </v>
   <v>       0.20833333       0.11111111       0.00000000 </v>
   <v>       0.25000000       0.11111111       0.00000000 </v>
   <v>       0.29166667       0.11111111       0.00000000 </v>
   <v>       0.33333333       0.11111111       0.00000000 </v>
   <v>       0.37500000       0.11111111       0.00000000 </v>
   <v>       0.41666667       0.11111111       0.00000000 </v>
   <v>       0.45833333       0.11111111       0.00000000 </v>
   <v>       0.50000000       0.11111111       0.00000000 </v>
   <v>       0.00000000       0.13888889       0.00000000 </v>
   <v>       0.04166667       0.13888889       0.00000000 </v>
   <v>       0.08333333       0.13888889       0.00000000 </v>
   <v>       0.12500000       0.13888889       0.00000000 </v>
   <v>       0.16666667       0.13888889       0.00000000 </v>
   <v>       0.20833333       0.13888889       0.00000000 </v>
   <v>       0.25000000       0.13888889       0.00000000 </v>
   <v>       0.29166667       0.13888889       0.00000000 </v>
   <v>       0.33333333       0.13888889       0.00000000 </v>
   <v>       0.37500000       0.13888889       0.00000000 </v>
   <v>       0.41666667       0.13888889       0.00000000 </v>
   <v>       0.45833333       0.13888889       0.00000000 </v>
   <v>       0.50000000       0.13888889       0.00000000 </v>
   <v>       0.00000000       0.16666667       0.00000000 </v>
   <v>       0.04166667       0.16666667       0.00000000 </v>
   <v>       0.08333333       0.16666667       0.00000000 </v>
   <v>       0.12500000       0.16666667       0.00000000 </v>
   <v>       0.16666667       0.16666667       0.00000000 </v>
   <v>       0.20833333       0.16666667       0.00000000 </v>
   <v>       0.25000000       0.16666667       0.00000000 </v>
   <v>       0.29166667       0.16666667       0.00000000 </v>
   <v>       0.33333333       0.16666667       0.00000000 </v>
   <v>       0.37500000       0.16666667       0.00000000 </v>
   <v>       0.41666667       0.16666667       0.00000000 </v>
   <v>       0.45833333       0.16666667       0.00000000 </v>
   <v>       0.50000000       0.16666667       0.00000000 </v>
   <v>       0.00000000       0.19444444       0.00000000 </v>
   <v>       0.04166667       0.19444444       0.00000000 </v>
   <v>       0.08333333       0.19444444       0.00000000 </v>
   <v>       0.12500000       0.19444444       0.00000000 </v>
   <v>       0.16666667       0.19444444       0.00000000 </v>
   <v>       0.20833333       0.19444444       0.00000000 </v>
   <v>       0.25000000       0.19444444       0.00000000 </v>
   <v>       0.29166667       0.19444444       0.00000000 </v>
   <v>       0.33333333       0.19444444       0.00000000 </v>
   <v>       0.37500000       0.19444444       0.00000000 </v>
   <v>       0.41666667       0.19444444       0.00000000 </v>
   <v>       0.45833333       0.19444444       0.00000000 </v>
   <v>       0.50000000       0.19444444       0.00000000 </v>
   <v>       0.00000000       0.22222222       0.00000000 </v>
   <v>       0.04166667       0.22222222       0.00000000 </v>
   <v>       0.08333333       0.22222222       0.00000000 </v>
   <v>       0.12500000       0.22222222       0.00000000 </v>
   <v>       0.16666667       0.22222222       0.00000000 </v>
   <v>       0.20833333       0.22222222       0.00000000 </v>
   <v>       0.25000000       0.22222222       0.00000000 </v>
   <v>       0.29166667       0.22222222       0.00000000 </v>
   <v>       0.33333333       0.22222222       0.00000000 </v>
   <v>       0.37500000       0.22222222       0.00000000 </v>
   <v>       0.41666667       0.22222222       0.00000000 </v>
   <v>       0.45833333       0.22222222       0.00000000 </v>
   <v>       0.50000000       0.22222222       0.00000000 </v>
   <v>       0.00000000       0.25000000       0.00000000 </v>
   <v>       0.04166667       0.25000000       0.00000000 </v>
   <v>       0.08333333       0.25000000       0.00000000 </v>
   <v>       0.12500000       0.25000000       0.00000000 </v>
   <v>       0.16666667       0.25000000       0.00000000 </v>
   <v>       0.20833333       0.25000000       0.00000000 </v>
   <v>       0.25000000       0.25000000       0.00000000 </v>
   <v>       0.29166667       0.25000000       0.00000000 </v>
   <v>       0.33333333       0.25000000       0.00000000 </v>
   <v>       0.37500000       0.25000000       0.00000000 </v>
   <v>       0.41666667       0.25000000       0.00000000 </v>
   <v>       0.45833333       0.25000000       0.00000000 </v>
   <v>       0.50000000       0.25000000       0.00000000 </v>
   <v>       0.00000000       0.27777778       0.00000000 </v>
   <v>       0.04166667       0.27777778       0.00000000 </v>
   <v>       0.08333333       0.27777778       0.00000000 </v>
   <v>       0.12500000       0.27777778       0.00000000 </v>
   <v>       0.16666667       0.27777778       0.00000000 </v>
   <v>       0.20833333       0.27777778       0.00000000 </v>
   <v>       0.25000000       0.27777778       0.00000000 </v>
   <v>       0.29166667       0.27777778       0.00000000 </v>
   <v>       0.33333333       0.27777778       0.00000000 </v>
   <v>       0.37500000       0.27777778       0.00000000 </v>
   <v>       0.41666667       0.27777778       0.00000000 </v>
   <v>       0.45833333       0.27777778       0.00000000 </v>
   <v>       0.50000000       0.27777778       0.00000000 </v>
   <v>       0.00000000       0.30555556       0.00000000 </v>
   <v>       0.04166667       0.30555556       0.00000000 </v>
   <v>       0.08333333       0.30555556       0.00000000 </v>
   <v>       0.12500000       0.30555556       0.00000000 </v>
   <v>       0.16666667       0.30555556       0.00000000 </v>
   <v>       0.20833333       0.30555556       0.00000000 </v>
   <v>       0.25000000       0.30555556       0.00000000 </v>
   <v>       0.29166667       0.30555556       0.00000000 </v>
   <v>       0.33333333       0.30555556       0.00000000 </v>
   <v>       0.37500000       0.30555556       0.00000000 </v>
   <v>       0.41666667       0.30555556       0.00000000 </v>
   <v>       0.45833333       0.30555556       0.00000000 </v>
   <v>       0.50000000       0.30555556       0.00000000 </v>
   <v>       0.00000000       0.33333333       0.00000000 </v>
   <v>       0.04166667       0.33333333       0.00000000 </v>
   <v>       0.08333333       0.33333333       0.00000000 </v>
   <v>       0.12500000       0.33333333       0.00000000 </v>
   <v>       0.16666667       0.33333333       0.00000000 </v>
   <v>       0.20833333       0.33333333       0.00000000 </v>
   <v>       0.25000000       0.33333333       0.00000000 </v>
   <v>       0.29166667       0.33333333       0.00000000 </v>
   <v>       0.33333333       0.33333333       0.00000000 </v>
   <v>       0.37500000       0.33333333       0.00000000 </v>
   <v>       0.41666667       0.33333333       0.00000000 </v>
   <v>       0.45833333       0.33333333       0.00000000 </v>
   <v>       0.50000000       0.33333333       0.00000000 </v>
   <v>       0.00000000       0.36111111       0.00000000 </v>
   <v>       0.04166667       0.36111111       0.00000000 </v>
   <v>       0.08333333       0.36111111       0.00000000 </v>
   <v>       0.12500000       0.36111111       0.00000000 </v>
   <v>       0.16666667       0.36111111       0.00000000 </v>
   <v>       0.20833333       0.36111111       0.00000000 </v>
   <v>       0.25000000       0.36111111       0.00000000 </v>
   <v>       0.29166667       0.36111111       0.00000000 </v>
   <v>       0.33333333       0.36111111       0.00000000 </v>
   <v>       0.37500000       0.36111111       0.00000000 </v>
   <v>       0.41666667       0.36111111       0.00000000 </v>
   <v>       0.45833333       0.36111111       0.00000000 </v>
   <v>       0.50000000       0.36111111       0.00000000 </v>
   <v>       0.00000000       0.38888889       0.00000000 </v>
   <v>       0.04166667       0.38888889       0.00000000 </v>
   <v>       0.08333333       0.38888889       0.00000000 </v>
   <v>       0.12500000       0.38888889       0.00000000 </v>
   <v>       0.16666667       0.38888889       0.00000000 </v>
   <v>       0.20833333       0.38888889       0.00000000 </v>
   <v>       0.25000000       0.38888889       0.00000000 </v>
   <v>       0.29166667       0.38888889       0.00000000 </v>
   <v>       0.33333333       0.38888889       0.00000000 </v>
   <v>       0.37500000       0.38888889       0.00000000 </v>
   <v>       0.41666667       0.38888889       0.00000000 </v>
   <v>       0.45833333       0.38888889       0.00000000 </v>
   <v>       0.50000000       0.38888889       0.00000000 </v>
   <v>       0.00000000       0.41666667       0.00000000 </v>
   <v>       0.04166667       0.41666667       0.00000000 </v>
   <v>       0.08333333       0.41666667       0.00000000 </v>
   <v>       0.12500000       0.41666667       0.00000000 </v>
   <v>       0.16666667       0.41666667       0.00000000 </v>
   <v>       0.20833333       0.41666667       0.00000000 </v>
   <v>       0.25000000       0.41666667       0.00000000 </v>
   <v>       0.29166667       0.41666667       0.00000000 </v>
   <v>       0.33333333       0.41666667       0.00000000 </v>
   <v>       0.37500000       0.41666667       0.00000000 </v>
   <v>       0.41666667       0.41666667       0.00000000 </v>
   <v>       0.45833333       0.41666667       0.00000000 </v>
   <v>       0.50000000       0.41666667       0.00000000 </v>
   <v>       0.00000000       0.44444444       0.00000000 </v>
   <v>       0.04166667       0.44444444       0.00000000 </v>
   <v>       0.08333333       0.44444444       0.00000000 </v>
   <v>       0.12500000       0.44444444       0.00000000 </v>
   <v>       0.16666667       0.44444444       0.00000000 </v>
   <v>       0.20833333       0.44444444       0.00000000 </v>
   <v>       0.25000000       0.44444444       0.00000000 </v>
   <v>       0.29166667       0.44444444       0.00000000 </v>
   <v>       0.33333333       0.44444444       0.00000000 </v>
   <v>       0.37500000       0.44444444       0.00000000 </v>
   <v>       0.41666667       0.44444444       0.00000000 </v>
   <v>       0.45833333       0.44444444       0.00000000 </v>
   <v>       0.50000000       0.44444444       0.00000000 </v>
   <v>       0.00000000       0.47222222       0.00000000 </v>
   <v>       0.04166667       0.47222222       0.00000000 </v>
   <v>       0.08333333       0.47222222       0.00000000 </v>
   <v>       0.12500000       0.47222222       0.00000000 </v>
   <v>       0.16666667       0.47222222       0.00000000 </v>
   <v>       0.20833333       0.47222222       0.00000000 </v>
   <v>       0.25000000       0.47222222       0.00000000 </v>
   <v>       0.29166667       0.47222222       0.00000000 </v>
   <v>       0.33333333       0.47222222       0.00000000 </v>
   <v>       0.37500000       0.47222222       0.00000000 </v>
   <v>       0.41666667       0.47222222       0.00000000 </v>
   <v>       0.45833333       0.47222222       0.00000000 </v>
   <v>       0.50000000       0.47222222       0.00000000 </v>
   <v>       0.00000000       0.50000000       0.00000000 </v>
   <v>       0.04166667       0.50000000       0.00000000 </v>
   <v>       0.08333333       0.50000000       0.00000000 </v>
   <v>       0.12500000       0.50000000       0.00000000 </v>
   <v>       0.16666667       0.50000000       0.00000000 </v>
   <v>       0.20833333       0.50000000       0.00000000 </v>
   <v>       0.25000000       0.50000000       0.00000000 </v>
   <v>       0.29166667       0.50000000       0.00000000 </v>
   <v>       0.33333333       0.50000000       0.00000000 </v>
   <v>       0.37500000       0.50000000       0.00000000 </v>
   <v>       0.41666667       0.50000000       0.00000000 </v>
   <v>       0.45833333       0.50000000       0.00000000 </v>
   <v>       0.50000000       0.50000000       0.00000000 </v>
  </varray>
  <varray name="weights" >
   <v>       0.00115741 </v>
   <v>       0.00231481 </v>
   <v>       0.00231481 </v>
   <v>       0.00231481 </v>
   <v>       0.00231481 </v>
   <v>       0.00231481 </v>
   <v>       0.00231481 </v>
   <v>       0.00231481 </v>
   <v>       0.00231481 </v>
   <v>       0.00231481 </v>
   <v>       0.00231481 </v>
   <v>       0.00231481 </v>
   <v>       0.00115741 </v>
   <v>       0.00231481 </v>
   <v>       0.00462963 </v>
   <v>       0.00462963 </v>
   <v>       0.00462963 </v>
   <v>       0.00462963 </v>
   <v>       0.00462963 </v>
   <v>       0.00462963 </v>
   <v>       0.00462963 </v>
   <v>       0.00462963 </v>
   <v>       0.00462963 </v>
   <v>       0.00462963 </v>
   <v>       0.00462963 </v>
   <v>       0.00231481 </v>
   <v>       0.00231481 </v>
   <v>       0.00462963 </v>
   <v>       0.00462963 </v>
   <v>       0.00462963 </v>
   <v>       0.00462963 </v>
   <v>       0.00462963 </v>
   <v>       0.00462963 </v>
   <v>       0.00462963 </v>
   <v>       0.00462963 </v>
   <v>       0.00462963 </v>
   <v>       0.00462963 </v>
   <v>       0.00462963 </v>
   <v>       0.00231481 </v>
   <v>       0.00231481 </v>
   <v>       0.00462963 </v>
   <v>       0.00462963 </v>
   <v>       0.00462963 </v>
   <v>       0.00462963 </v>
   <v>       0.00462963 </v>
   <v>       0.00462963 </v>
   <v>       0.00462963 </v>
   <v>       0.00462963 </v>
   <v>       0.00462963 </v>
   <v>       0.00462963 </v>
   <v>       0.00462963 </v>
   <v>       0.00231481 </v>
   <v>       0.00231481 </v>
   <v>       0.00462963 </v>
   <v>       0.00462963 </v>
   <v>       0.00462963 </v>
   <v>       0.00462963 </v>
   <v>       0.00462963 </v>
   <v>       0.00462963 </v>
   <v>       0.00462963 </v>
   <v>       0.00462963 </v>
   <v>       0.00462963 </v>
   <v>       0.00462963 </v>
   <v>       0.00462963 </v>
   <v>       0.00231481 </v>
   <v>       0.00231481 </v>
   <v>       0.00462963 </v>
   <v>       0.00462963 </v>
   <v>       0.00462963 </v>
   <v>       0.00462963 </v>
   <v>       0.00462963 </v>
   <v>       0.00462963 </v>
   <v>       0.00462963 </v>
   <v>       0.00462963 </v>
   <v>       0.00462963 </v>
   <v>       0.00462963 </v>
   <v>       0.00462963 </v>
   <v>       0.00231481 </v>
   <v>       0.00231481 </v>
   <v>       0.00462963 </v>
   <v>       0.00462963 </v>
   <v>       0.00462963 </v>
   <v>       0.00462963 </v>
   <v>       0.00462963 </v>
   <v>       0.00462963 </v>
   <v>       0.00462963 </v>
   <v>       0.00462963 </v>
   <v>       0.00462963 </v>
   <v>       0.00462963 </v>
   <v>       0.00462963 </v>
   <v>       0.00231481 </v>
   <v>       0.00231481 </v>
   <v>       0.00462963 </v>
   <v>       0.00462963 </v>
   <v>       0.00462963 </v>
   <v>       0.00462963 </v>
   <v>       0.00462963 </v>
   <v>       0.00462963 </v>
   <v>       0.00462963 </v>
   <v>       0.00462963 </v>
   <v>       0.00462963 </v>
   <v>       0.00462963 </v>
   <v>       0.00462963 </v>
   <v>       0.00231481 </v>
   <v>       0.00231481 </v>
   <v>       0.00462963 </v>
   <v>       0.00462963 </v>
   <v>       0.00462963 </v>
   <v>       0.00462963 </v>
   <v>       0.00462963 </v>
   <v>       0.00462963 </v>
   <v>       0.00462963 </v>
   <v>       0.00462963 </v>
   <v>       0.00462963 </v>
   <v>       0.00462963 </v>
   <v>       0.00462963 </v>
   <v>       0.00231481 </v>
   <v>       0.00231481 </v>
   <v>       0.00462963 </v>
   <v>       0.00462963 </v>
   <v>       0.00462963 </v>
   <v>       0.00462963 </v>
   <v>       0.00462963 </v>
   <v>       0.00462963 </v>
   <v>       0.00462963 </v>
   <v>       0.00462963 </v>
   <v>       0.00462963 </v>
   <v>       0.00462963 </v>
   <v>       0.00462963 </v>
   <v>       0.00231481 </v>
   <v>       0.00231481 </v>
   <v>       0.00462963 </v>
   <v>       0.00462963 </v>
   <v>       0.00462963 </v>
   <v>       0.00462963 </v>
   <v>       0.00462963 </v>
   <v>       0.00462963 </v>
   <v>       0.00462963 </v>
   <v>       0.00462963 </v>
   <v>       0.00462963 </v>
   <v>       0.00462963 </v>
   <v>       0.00462963 </v>
   <v>       0.00231481 </v>
   <v>       0.00231481 </v>
   <v>       0.00462963 </v>
   <v>       0.00462963 </v>
   <v>       0.00462963 </v>
   <v>       0.00462963 </v>
   <v>       0.00462963 </v>
   <v>       0.00462963 </v>
   <v>       0.00462963 </v>
   <v>       0.00462963 </v>
   <v>       0.00462963 </v>
   <v>       0.00462963 </v>
   <v>       0.00462963 </v>
   <v>       0.00231481 </v>
   <v>       0.00231481 </v>
   <v>       0.00462963 </v>
   <v>       0.00462963 </v>
   <v>       0.00462963 </v>
   <v>       0.00462963 </v>
   <v>       0.00462963 </v>
   <v>       0.00462963 </v>
   <v>       0.00462963 </v>
   <v>       0.00462963 </v>
   <v>       0.00462963 </v>
   <v>       0.00462963 </v>
   <v>       0.00462963 </v>
   <v>       0.00231481 </v>
   <v>       0.00231481 </v>
   <v>       0.00462963 </v>
   <v>       0.00462963 </v>
   <v>       0.00462963 </v>
   <v>       0.00462963 </v>
   <v>       0.00462963 </v>
   <v>       0.00462963 </v>
   <v>       0.00462963 </v>
   <v>       0.00462963 </v>
   <v>       0.00462963 </v>
   <v>       0.00462963 </v>
   <v>       0.00462963 </v>
   <v>       0.00231481 </v>
   <v>       0.00231481 </v>
   <v>       0.00462963 </v>
   <v>       0.00462963 </v>
   <v>       0.00462963 </v>
   <v>       0.00462963 </v>
   <v>       0.00462963 </v>
   <v>       0.00462963 </v>
   <v>       0.00462963 </v>
   <v>       0.00462963 </v>
   <v>       0.00462963 </v>
   <v>       0.00462963 </v>
   <v>       0.00462963 </v>
   <v>       0.00231481 </v>
   <v>       0.00231481 </v>
   <v>       0.00462963 </v>
   <v>       0.00462963 </v>
   <v>       0.00462963 </v>
   <v>       0.00462963 </v>
   <v>       0.00462963 </v>
   <v>       0.00462963 </v>
   <v>       0.00462963 </v>
   <v>       0.00462963 </v>
   <v>       0.00462963 </v>
   <v>       0.00462963 </v>
   <v>       0.00462963 </v>
   <v>       0.00231481 </v>
   <v>       0.00231481 </v>
   <v>       0.00462963 </v>
   <v>       0.00462963 </v>
   <v>       0.00462963 </v>
   <v>       0.00462963 </v>
   <v>       0.00462963 </v>
   <v>       0.00462963 </v>
   <v>       0.00462963 </v>
   <v>       0.00462963 </v>
   <v>       0.00462963 </v>
   <v>       0.00462963 </v>
   <v>       0.00462963 </v>
   <v>       0.00231481 </v>
   <v>       0.00231481 </v>
   <v>       0.00462963 </v>
   <v>       0.00462963 </v>
   <v>       0.00462963 </v>
   <v>       0.00462963 </v>
   <v>       0.00462963 </v>
   <v>       0.00462963 </v>
   <v>       0.00462963 </v>
   <v>       0.00462963 </v>
   <v>       0.00462963 </v>
   <v>       0.00462963 </v>
   <v>       0.00462963 </v>
   <v>       0.00231481 </v>
   <v>       0.00115741 </v>
   <v>       0.00231481 </v>
   <v>       0.00231481 </v>
   <v>       0.00231481 </v>
   <v>       0.00231481 </v>
   <v>       0.00231481 </v>
   <v>       0.00231481 </v>
   <v>       0.00231481 </v>
   <v>       0.00231481 </v>
   <v>       0.00231481 </v>
   <v>       0.00231481 </v>
   <v>       0.00231481 </v>
   <v>       0.00115741 </v>
  </varray>
 </kpoints>
 <parameters>
  <separator name="general" >
   <i type="string" name="SYSTEM">gr</i>
   <i type="logical" name="LCOMPAT"> F  </i>
  </separator>
  <separator name="electronic" >
   <i type="string" name="PREC">accura</i>
   <i name="ENMAX">   2000.00000000</i>
   <i name="ENAUG">    644.87300000</i>
   <i name="EDIFF">      0.00000000</i>
   <i type="int" name="IALGO">    68</i>
   <i type="int" name="IWAVPR">    11</i>
   <i type="int" name="NBANDS">    12</i>
   <i name="NELECT">     16.00000000</i>
   <i type="int" name="TURBO">     0</i>
   <i type="int" name="IRESTART">     0</i>
   <i type="int" name="NREBOOT">     0</i>
   <i type="int" name="NMIN">     0</i>
   <i name="EREF">      0.00000000</i>
   <separator name="electronic smearing" >
    <i type="int" name="ISMEAR">     0</i>
    <i name="SIGMA">      0.05000000</i>
    <i name="KSPACING">      0.50000000</i>
    <i type="logical" name="KGAMMA"> T  </i>
   </separator>
   <separator name="electronic projectors" >
    <i type="logical" name="LREAL"> F  </i>
    <v name="ROPT">      0.00000000</v>
    <i type="int" name="LMAXPAW">  -100</i>
    <i type="int" name="LMAXMIX">     2</i>
    <i type="logical" name="NLSPLINE"> F  </i>
   </separator>
   <separator name="electronic startup" >
    <i type="int" name="ISTART">     0</i>
    <i type="int" name="ICHARG">     2</i>
    <i type="int" name="INIWAV">     1</i>
   </separator>
   <separator name="electronic spin" >
    <i type="int" name="ISPIN">     1</i>
    <i type="logical" name="LNONCOLLINEAR"> F  </i>
    <v name="MAGMOM">      1.00000000      1.00000000      1.00000000      1.00000000</v>
    <i name="NUPDOWN">     -1.00000000</i>
    <i type="logical" name="LSORBIT"> F  </i>
    <v name="SAXIS">      0.00000000      0.00000000      1.00000000</v>
    <i type="logical" name="LSPIRAL"> F  </i>
    <v name="QSPIRAL">      0.00000000      0.00000000      0.00000000</v>
    <i type="logical" name="LZEROZ"> F  </i>
   </separator>
   <separator name="electronic exchange-correlation" >
    <i type="logical" name="LASPH"> F  </i>
    <i type="logical" name="LMETAGGA"> F  </i>
   </separator>
   <separator name="electronic convergence" >
    <i type="int" name="NELM">   100</i>
    <i type="int" name="NELMDL">    -3</i>
    <i type="int" name="NELMIN">     5</i>
    <i name="ENINI">   2000.00000000</i>
    <separator name="electronic convergence detail" >
     <i type="logical" name="LDIAG"> T  </i>
     <i type="logical" name="LSUBROT"> F  </i>
     <i name="WEIMIN">      0.00100000</i>
     <i name="EBREAK">      0.00000000</i>
     <i name="DEPER">      0.30000000</i>
     <i type="int" name="NRMM">     4</i>
     <i name="TIME">      0.40000000</i>
    </separator>
   </separator>
   <separator name="electronic mixer" >
    <i name="AMIX">      0.40000000</i>
    <i name="BMIX">      1.00000000</i>
    <i name="AMIN">      0.10000000</i>
    <i name="AMIX_MAG">      1.60000000</i>
    <i name="BMIX_MAG">      1.00000000</i>
    <separator name="electronic mixer details" >
     <i type="int" name="IMIX">     4</i>
     <i type="int" name="MAXMIX">   -45</i>
     <i name="WC">    100.00000000</i>
     <i type="int" name="INIMIX">     1</i>
     <i type="int" name="MIXPRE">     1</i>
     <i type="int" name="MREMOVE">     5</i>
    </separator>
   </separator>
   <separator name="electronic dipolcorrection" >
    <i type="logical" name="LDIPOL"> F  </i>
    <i type="logical" name="LMONO"> F  </i>
    <i type="int" name="IDIPOL">     0</i>
    <i name="EPSILON">      1.00000000</i>
    <v name="DIPOL">   -100.00000000   -100.00000000   -100.00000000</v>
    <i name="EFIELD">      0.00000000</i>
   </separator>
  </separator>
  <separator name="grids" >
   <i type="int" name="NGX">    64</i>
   <i type="int" name="NGY">    40</i>
   <i type="int" name="NGZ">   288</i>
   <i type="int" name="NGXF">   128</i>
   <i type="int" name="NGYF">    80</i>
   <i type="int" name="NGZF">   576</i>
   <i type="logical" name="ADDGRID"> F  </i>
  </separator>
  <separator name="ionic" >
   <i type="int" name="NSW">   400</i>
   <i type="int" name="IBRION">     1</i>
   <i type="int" name="ISIF">     2</i>
   <i name="PSTRESS">      0.00000000</i>
   <i name="EDIFFG">     -0.00000100</i>
   <i type="int" name="NFREE">     0</i>
   <i name="POTIM">      0.50000000</i>
   <i name="SMASS">     -3.00000000</i>
   <i name="SCALEE">      1.00000000</i>
  </separator>
  <separator name="ionic md" >
   <i name="TEBEG">      0.00010000</i>
   <i name="TEEND">      0.00010000</i>
   <i type="int" name="NBLOCK">     1</i>
   <i type="int" name="KBLOCK">   400</i>
   <i type="int" name="NPACO">   256</i>
   <i name="APACO">     16.00000000</i>
  </separator>
  <separator name="symmetry" >
   <i type="int" name="ISYM">     2</i>
   <i name="SYMPREC">      0.00001000</i>
  </separator>
  <separator name="dos" >
   <i type="logical" name="LORBIT"> F  </i>
   <v name="RWIGS">     -1.00000000</v>
   <i type="int" name="NEDOS">   301</i>
   <i name="EMIN">     10.00000000</i>
   <i name="EMAX">    -10.00000000</i>
   <i name="EFERMI">      0.00000000</i>
  </separator>
  <separator name="writing" >
   <i type="int" name="NWRITE">     2</i>
   <i type="logical" name="LWAVE"> F  </i>
   <i type="logical" name="LCHARG"> F  </i>
   <i type="logical" name="LPARD"> F  </i>
   <i type="logical" name="LVTOT"> F  </i>
   <i type="logical" name="LVHAR"> F  </i>
   <i type="logical" name="LELF"> F  </i>
   <i type="logical" name="LOPTICS"> F  </i>
   <v name="STM">      0.00000000      0.00000000      0.00000000      0.00000000      0.00000000      0.00000000      0.00000000</v>
  </separator>
  <separator name="performance" >
   <i type="int" name="NPAR">     4</i>
   <i type="int" name="NSIM">     4</i>
   <i type="int" name="NBLK">    -1</i>
   <i type="logical" name="LPLANE"> T  </i>
   <i type="logical" name="LSCALAPACK"> F  </i>
   <i type="logical" name="LSCAAWARE"> F  </i>
   <i type="logical" name="LSCALU"> F  </i>
   <i type="logical" name="LASYNC"> F  </i>
   <i type="logical" name="LORBITALREAL"> F  </i>
  </separator>
  <separator name="miscellaneous" >
   <i type="int" name="IDIOT">     3</i>
   <i type="logical" name="LMUSIC"> F  </i>
   <v name="POMASS">     12.01100000</v>
   <v name="DARWINR">      0.00000000</v>
   <v name="DARWINV">      1.00000000</v>
   <i type="logical" name="LCORR"> T  </i>
  </separator>
  <i type="logical" name="GGA_COMPAT"> T  </i>
  <i type="logical" name="LBERRY"> F  </i>
  <i type="int" name="ICORELEVEL">     0</i>
  <i type="logical" name="LDAU"> F  </i>
  <i type="int" name="I_CONSTRAINED_M">     0</i>
  <separator name="electronic exchange-correlation" >
   <i type="string" name="GGA">--</i>
   <i type="int" name="VOSKOWN">     0</i>
   <i type="logical" name="LHFCALC"> F  </i>
   <i type="string" name="PRECFOCK"></i>
   <i type="logical" name="LSYMGRAD"> F  </i>
   <i type="logical" name="LHFONE"> F  </i>
   <i type="logical" name="LRHFCALC"> F  </i>
   <i type="logical" name="LTHOMAS"> F  </i>
   <i type="logical" name="LMODELHF"> F  </i>
   <i name="ENCUT4O">     -1.00000000</i>
   <i type="int" name="EXXOEP">     0</i>
   <i type="int" name="FOURORBIT">     0</i>
   <i name="AEXX">      0.00000000</i>
   <i name="HFALPHA">      0.00000000</i>
   <i name="MCALPHA">      0.00000000</i>
   <i name="ALDAX">      1.00000000</i>
   <i name="AGGAX">      1.00000000</i>
   <i name="ALDAC">      1.00000000</i>
   <i name="AGGAC">      1.00000000</i>
   <i type="int" name="NKREDX">     1</i>
   <i type="int" name="NKREDY">     1</i>
   <i type="int" name="NKREDZ">     1</i>
   <i type="logical" name="SHIFTRED"> F  </i>
   <i type="logical" name="ODDONLY"> F  </i>
   <i type="logical" name="EVENONLY"> F  </i>
   <i type="int" name="LMAXFOCK">     0</i>
   <i type="int" name="NMAXFOCKAE">     0</i>
   <i type="logical" name="LFOCKAEDFT"> F  </i>
   <i name="HFSCREEN">      0.00000000</i>
   <i name="HFSCREENC">      0.00000000</i>
   <i type="int" name="NBANDSGWLOW">     0</i>
  </separator>
  <separator name="vdW DFT" >
   <i type="logical" name="LUSE_VDW"> F  </i>
   <i name="Zab_VDW">     -0.84910000</i>
   <i name="PARAM1">      0.12340000</i>
   <i name="PARAM2">      1.00000000</i>
   <i name="PARAM3">      0.00000000</i>
  </separator>
  <separator name="model GW" >
   <i type="int" name="MODEL_GW">     0</i>
   <i name="MODEL_EPS0">     31.62568521</i>
   <i name="MODEL_ALPHA">      1.00000000</i>
  </separator>
  <separator name="linear response parameters" >
   <i type="logical" name="LEPSILON"> F  </i>
   <i type="logical" name="LRPA"> F  </i>
   <i type="logical" name="LNABLA"> F  </i>
   <i type="logical" name="LVEL"> F  </i>
   <i type="int" name="KINTER">     0</i>
   <i name="CSHIFT">      0.10000000</i>
   <i name="OMEGAMAX">     -1.00000000</i>
   <i name="DEG_THRESHOLD">      0.00200000</i>
  </separator>
  <separator name="orbital magnetization" >
   <i type="logical" name="NUCIND"> F  </i>
   <v name="MAGPOS">      0.00000000      0.00000000      0.00000000</v>
   <i type="logical" name="LNICSALL"> T  </i>
   <i type="logical" name="ORBITALMAG"> F  </i>
   <i type="logical" name="LMAGBLOCH"> F  </i>
   <i type="logical" name="LCHIMAG"> F  </i>
   <i type="logical" name="LGAUGE"> T  </i>
   <i type="int" name="MAGATOM">     0</i>
   <v name="MAGDIPOL">      0.00000000      0.00000000      0.00000000</v>
   <v name="AVECCONST">      0.00000000      0.00000000      0.00000000</v>
  </separator>
  <separator name="response functions" >
   <i type="logical" name="LADDER"> F  </i>
   <i type="logical" name="LFXC"> F  </i>
   <i type="logical" name="LHARTREE"> T  </i>
   <i type="int" name="IBSE">     0</i>
   <i type="logical" name="LTCTE"> F  </i>
   <i type="logical" name="LTETE"> F  </i>
   <i type="logical" name="LTRIPLET"> F  </i>
   <i type="logical" name="LFXCEPS"> F  </i>
   <i type="logical" name="LFXHEG"> F  </i>
   <i type="logical" name="L2ORDER"> F  </i>
   <i type="logical" name="LUSEW"> F  </i>
   <i name="ENCUTGW">     -2.00000000</i>
   <i name="ENCUTGWSOFT">     -2.00000000</i>
   <i name="ENCUTLF">     -1.00000000</i>
   <i type="int" name="LMAXMP2">    -1</i>
   <i name="SCISSOR">      0.00000000</i>
   <i type="int" name="NOMEGA">     0</i>
   <i type="int" name="NOMEGAR">     0</i>
   <i type="int" name="NBANDSGW">    -1</i>
   <i type="int" name="NBANDSO">    -1</i>
   <i type="int" name="NBANDSV">    -1</i>
   <i type="int" name="NELM">   100</i>
   <i type="int" name="DIM">     3</i>
   <i type="int" name="ANTIRES">     0</i>
   <i name="OMEGAMAX">    -30.00000000</i>
   <i name="OMEGAMIN">    -30.00000000</i>
   <i name="OMEGATL">   -200.00000000</i>
   <i type="int" name="OMEGAGRID">     0</i>
   <i name="CSHIFT">     -0.10000000</i>
   <i type="logical" name="SELFENERGY"> F  </i>
   <i type="logical" name="LSPECTRAL"> F  </i>
   <i type="logical" name="ODDONLYGW"> F  </i>
   <i type="logical" name="EVENONLYGW"> F  </i>
   <i type="int" name="NKREDLFX">     1</i>
   <i type="int" name="NKREDLFY">     1</i>
   <i type="int" name="NKREDLFZ">     1</i>
   <i type="int" name="MAXMEM">  1800</i>
   <i type="int" name="TELESCOPE">     0</i>
   <i type="int" name="TAUPAR">     1</i>
  </separator>
  <separator name="External order field" >
   <i name="OFIELD_KAPPA">      0.00000000</i>
   <v name="OFIELD_K">      0.00000000      0.00000000      0.00000000</v>
   <i name="OFIELD_Q6_NEAR">      0.00000000</i>
   <i name="OFIELD_Q6_FAR">      0.00000000</i>
   <i name="OFIELD_A">      0.00000000</i>
  </separator>
 </parameters>
 <atominfo>
  <atoms>       4 </atoms>
  <types>       1 </types>
  <array name="atoms" >
   <dimension dim="1">ion</dimension>
   <field type="string">element</field>
   <field type="int">atomtype</field>
   <set>
    <rc><c>C </c><c>   1</c></rc>
    <rc><c>C </c><c>   1</c></rc>
    <rc><c>C </c><c>   1</c></rc>
    <rc><c>C </c><c>   1</c></rc>
   </set>
  </array>
  <array name="atomtypes" >
   <dimension dim="1">type</dimension>
   <field type="int">atomspertype</field>
   <field type="string">element</field>
   <field>mass</field>
   <field>valence</field>
   <field type="string">pseudopotential</field>
   <set>
    <rc><c>   4</c><c>C </c><c>     12.01100000</c><c>      4.00000000</c><c> PAW_PBE C 08Apr2002                    </c></rc>
   </set>
  </array>
 </atominfo>
 <structure name="initialpos" >
  <crystal>
   <varray name="basis" >
    <v>       4.25186411       0.00000000       0.00000000 </v>
    <v>       0.00000000       2.54132194       0.00000000 </v>
    <v>       0.00000000       0.00000000      19.51235201 </v>
   </varray>
   <i name="volume">    210.83790140 </i>
   <varray name="rec_basis" >
    <v>       0.23519096       0.00000000       0.00000000 </v>
    <v>       0.00000000       0.39349599       0.00000000 </v>
    <v>       0.00000000       0.00000000       0.05124959 </v>
   </varray>
  </crystal>
  <varray name="positions" >
   <v>       0.00074775       0.00000000       0.00000000 </v>
   <v>       0.16591892       0.50000000       0.00000000 </v>
   <v>       0.50074775       0.50000000       0.00000000 </v>
   <v>       0.66591892       0.00000000       0.00000000 </v>
  </varray>
 </structure>
 <calculation>
  <scstep>
   <time name="dav">  315.40  315.63</time>
   <time name="total">  318.13  318.38</time>
   <energy>
    <i name="alphaZ">      6.18334092 </i>
    <i name="ewald">   2423.65041222 </i>
    <i name="hartreedc">  -2853.92181166 </i>
    <i name="XCdc">     54.76323357 </i>
    <i name="pawpsdc">    151.32577238 </i>
    <i name="pawaedc">   -155.92769107 </i>
    <i name="eentropy">     -0.00185750 </i>
    <i name="bandstr">    -28.79072952 </i>
    <i name="atom">    588.62352690 </i>
    <i name="e_fr_energy">    185.90419626 </i>
    <i name="e_wo_entrp">    185.90605375 </i>
    <i name="e_0_energy">    185.90512500 </i>
   </energy>
  </scstep>
  <scstep>
   <time name="dav">  478.08  478.45</time>
   <time name="total">  478.09  478.46</time>
   <energy>
    <i name="e_fr_energy">     -9.20228346 </i>
    <i name="e_wo_entrp">     -9.20219704 </i>
    <i name="e_0_energy">     -9.20224025 </i>
   </energy>
  </scstep>
  <scstep>
   <time name="dav">  369.64  369.79</time>
   <time name="total">  403.37  403.71</time>
   <energy>
    <i name="e_fr_energy">    -38.02033914 </i>
    <i name="e_wo_entrp">    -38.02033753 </i>
    <i name="e_0_energy">    -38.02033833 </i>
   </energy>
  </scstep>
  <scstep>
   <time name="diag">   87.16   87.20</time>
   <time name="diis">  369.04  369.87</time>
   <time name="orth">    3.08    3.08</time>
   <time name="total">  495.50  496.57</time>
   <energy>
    <i name="e_fr_energy">    -37.53017830 </i>
    <i name="e_wo_entrp">    -37.53017829 </i>
    <i name="e_0_energy">    -37.53017830 </i>
   </energy>
  </scstep>
  <scstep>
   <time name="diag">   87.01   87.20</time>
   <time name="diis">  366.22  368.19</time>
   <time name="orth">    3.08    3.08</time>
   <time name="total">  492.64  494.90</time>
   <energy>
    <i name="e_fr_energy">    -36.83792695 </i>
    <i name="e_wo_entrp">    -36.83792695 </i>
    <i name="e_0_energy">    -36.83792695 </i>
   </energy>
  </scstep>
  <scstep>
   <time name="diag">   87.10   87.24</time>
   <time name="diis">  402.10  403.26</time>
   <time name="orth">    3.08    3.08</time>
   <time name="total">  528.61  530.11</time>
   <energy>
    <i name="e_fr_energy">    -36.84021404 </i>
    <i name="e_wo_entrp">    -36.84021404 </i>
    <i name="e_0_energy">    -36.84021404 </i>
   </energy>
  </scstep>
  <scstep>
   <time name="diag">   87.02   87.22</time>
   <time name="diis">  363.22  366.05</time>
   <time name="orth">    3.09    3.10</time>
   <time name="total">  489.30  492.81</time>
   <energy>
    <i name="e_fr_energy">    -36.83167175 </i>
    <i name="e_wo_entrp">    -36.83167175 </i>
    <i name="e_0_energy">    -36.83167175 </i>
   </energy>
  </scstep>
  <scstep>
   <time name="diag">   86.64   87.22</time>
   <time name="diis">  365.65  367.21</time>
   <time name="orth">    3.07    3.10</time>
   <time name="total">  491.68  494.18</time>
   <energy>
    <i name="e_fr_energy">    -36.82695123 </i>
    <i name="e_wo_entrp">    -36.82695123 </i>
    <i name="e_0_energy">    -36.82695123 </i>
   </energy>
  </scstep>
  <scstep>
   <time name="diag">   87.18   87.33</time>
   <time name="diis">  348.56  351.65</time>
   <time name="orth">    3.09    3.09</time>
   <time name="total">  474.87  478.51</time>
   <energy>
    <i name="e_fr_energy">    -36.82677468 </i>
    <i name="e_wo_entrp">    -36.82677468 </i>
    <i name="e_0_energy">    -36.82677468 </i>
   </energy>
  </scstep>
  <scstep>
   <time name="diag">   86.33   87.19</time>
   <time name="diis">  351.21  352.65</time>
   <time name="orth">    3.09    3.09</time>
   <time name="total">  476.82  479.34</time>
   <energy>
    <i name="e_fr_energy">    -36.82668612 </i>
    <i name="e_wo_entrp">    -36.82668612 </i>
    <i name="e_0_energy">    -36.82668612 </i>
   </energy>
  </scstep>
  <scstep>
   <time name="diag">   87.06   87.22</time>
   <time name="diis">  352.45  354.69</time>
   <time name="orth">    3.08    3.11</time>
   <time name="total">  478.72  481.48</time>
   <energy>
    <i name="e_fr_energy">    -36.82890684 </i>
    <i name="e_wo_entrp">    -36.82890684 </i>
    <i name="e_0_energy">    -36.82890684 </i>
   </energy>
  </scstep>
  <scstep>
   <time name="diag">   87.02   87.20</time>
   <time name="diis">  354.25  354.68</time>
   <time name="orth">    3.11    3.12</time>
   <time name="total">  480.57  481.42</time>
   <energy>
    <i name="e_fr_energy">    -36.82939192 </i>
    <i name="e_wo_entrp">    -36.82939192 </i>
    <i name="e_0_energy">    -36.82939192 </i>
   </energy>
  </scstep>
  <scstep>
   <time name="diag">   86.76   87.21</time>
   <time name="diis">  356.91  359.67</time>
   <time name="orth">    3.09    3.09</time>
   <time name="total">  482.89  486.43</time>
   <energy>
    <i name="e_fr_energy">    -36.82965324 </i>
    <i name="e_wo_entrp">    -36.82965323 </i>
    <i name="e_0_energy">    -36.82965323 </i>
   </energy>
  </scstep>
  <scstep>
   <time name="diag">   86.63   87.11</time>
   <time name="diis">  353.69  355.78</time>
   <time name="orth">    3.07    3.10</time>
   <time name="total">  479.60  482.40</time>
   <energy>
    <i name="e_fr_energy">    -36.82973354 </i>
    <i name="e_wo_entrp">    -36.82973354 </i>
    <i name="e_0_energy">    -36.82973354 </i>
   </energy>
  </scstep>
  <scstep>
   <time name="diag">   86.84   87.03</time>
   <time name="diis">  353.32  355.46</time>
   <time name="orth">    3.08    3.10</time>
   <time name="total">  479.15  482.01</time>
   <energy>
    <i name="e_fr_energy">    -36.82974567 </i>
    <i name="e_wo_entrp">    -36.82974567 </i>
    <i name="e_0_energy">    -36.82974567 </i>
   </energy>
  </scstep>
  <scstep>
   <time name="diag">   86.74   87.03</time>
   <time name="diis">  349.18  351.36</time>
   <time name="orth">    3.08    3.10</time>
   <time name="total">  475.17  477.90</time>
   <energy>
    <i name="e_fr_energy">    -36.82975978 </i>
    <i name="e_wo_entrp">    -36.82975978 </i>
    <i name="e_0_energy">    -36.82975978 </i>
   </energy>
  </scstep>
  <scstep>
   <time name="diag">   86.57   87.02</time>
   <time name="diis">  359.22  361.29</time>
   <time name="orth">    3.08    3.08</time>
   <time name="total">  485.05  487.76</time>
   <energy>
    <i name="e_fr_energy">    -36.82976564 </i>
    <i name="e_wo_entrp">    -36.82976563 </i>
    <i name="e_0_energy">    -36.82976564 </i>
   </energy>
  </scstep>
  <scstep>
   <time name="diag">   86.93   87.02</time>
   <time name="diis">  349.51  349.59</time>
   <time name="orth">    3.08    3.08</time>
   <time name="total">  475.81  476.18</time>
   <energy>
    <i name="e_fr_energy">    -36.82976667 </i>
    <i name="e_wo_entrp">    -36.82976667 </i>
    <i name="e_0_energy">    -36.82976667 </i>
   </energy>
  </scstep>
  <scstep>
   <time name="diag">   86.81   87.21</time>
   <time name="diis">  357.90  358.30</time>
   <time name="orth">    3.10    3.10</time>
   <time name="total">  484.19  485.37</time>
   <energy>
    <i name="e_fr_energy">    -36.82976735 </i>
    <i name="e_wo_entrp">    -36.82976734 </i>
    <i name="e_0_energy">    -36.82976735 </i>
   </energy>
  </scstep>
  <scstep>
   <time name="diag">   87.04   87.13</time>
   <time name="diis">  276.51  277.09</time>
   <time name="orth">    3.08    3.08</time>
   <time name="total">  403.01  403.71</time>
   <energy>
    <i name="e_fr_energy">    -36.82976740 </i>
    <i name="e_wo_entrp">    -36.82976740 </i>
    <i name="e_0_energy">    -36.82976740 </i>
   </energy>
  </scstep>
  <scstep>
   <time name="diag">   87.06   87.08</time>
   <time name="diis">  266.25  266.30</time>
   <time name="orth">    3.20    3.20</time>
   <time name="total">  392.80  392.96</time>
   <energy>
    <i name="e_fr_energy">    -36.82976741 </i>
    <i name="e_wo_entrp">    -36.82976741 </i>
    <i name="e_0_energy">    -36.82976741 </i>
   </energy>
  </scstep>
  <scstep>
   <time name="diag">   87.24   87.26</time>
   <time name="diis">  241.19  241.25</time>
   <time name="orth">    3.08    3.08</time>
   <time name="total">  334.13  334.23</time>
   <energy>
    <i name="alphaZ">      6.18334092 </i>
    <i name="ewald">   2423.65041222 </i>
    <i name="hartreedc">  -2917.99910444 </i>
    <i name="XCdc">     57.06845185 </i>
    <i name="pawpsdc">    267.26690268 </i>
    <i name="pawaedc">   -272.37143342 </i>
    <i name="eentropy">     -0.00000000 </i>
    <i name="bandstr">   -189.25186412 </i>
    <i name="atom">    588.62352690 </i>
    <i name="e_fr_energy">    -36.82976741 </i>
    <i name="e_wo_entrp">    -36.82976741 </i>
    <i name="e_0_energy">    -36.82976741 </i>
   </energy>
  </scstep>
  <structure>
   <crystal>
    <varray name="basis" >
     <v>       4.25186411       0.00000000       0.00000000 </v>
     <v>       0.00000000       2.54132194       0.00000000 </v>
     <v>       0.00000000       0.00000000      19.51235201 </v>
    </varray>
    <i name="volume">    210.83790140 </i>
    <varray name="rec_basis" >
     <v>       0.23519096       0.00000000       0.00000000 </v>
     <v>       0.00000000       0.39349599       0.00000000 </v>
     <v>       0.00000000       0.00000000       0.05124959 </v>
    </varray>
   </crystal>
   <varray name="positions" >
    <v>       0.00074775       0.00000000       0.00000000 </v>
    <v>       0.16591892       0.50000000       0.00000000 </v>
    <v>       0.50074775       0.50000000       0.00000000 </v>
    <v>       0.66591892       0.00000000       0.00000000 </v>
   </varray>
  </structure>
  <varray name="forces" >
   <v>      -0.00049380       0.00000000       0.00000000 </v>
   <v>       0.00049380      -0.00000000       0.00000000 </v>
   <v>      -0.00049380       0.00000000       0.00000000 </v>
   <v>       0.00049380      -0.00000000       0.00000000 </v>
  </varray>
  <varray name="stress" >
   <v>      -0.00437770       0.00000000       0.00000000 </v>
   <v>       0.00000000     -48.68574828       0.00000000 </v>
   <v>       0.00000000       0.00000000      -0.01020437 </v>
  </varray>
  <energy>
   <i name="e_fr_energy">    -36.82976741 </i>
   <i name="e_wo_entrp">    -36.82976741 </i>
   <i name="e_0_energy">     -0.00000000 </i>
  </energy>
  <time name="totalsc">10203.2210242.11</time>
 </calculation>
 <calculation>
  <scstep>
   <time name="dav">  339.17  339.72</time>
   <time name="total">  375.63  376.20</time>
   <energy>
    <i name="alphaZ">      6.18334092 </i>
    <i name="ewald">   2423.65101564 </i>
    <i name="hartreedc">  -2917.99936675 </i>
    <i name="XCdc">     57.06846898 </i>
    <i name="pawpsdc">    267.26690961 </i>
    <i name="pawaedc">   -272.37144024 </i>
    <i name="eentropy">     -0.00000000 </i>
    <i name="bandstr">   -189.25222241 </i>
    <i name="atom">    588.62352690 </i>
    <i name="e_fr_energy">    -36.82976734 </i>
    <i name="e_wo_entrp">    -36.82976734 </i>
    <i name="e_0_energy">    -36.82976734 </i>
   </energy>
  </scstep>
  <scstep>
   <time name="diag">   87.05   87.07</time>
   <time name="diis">  353.72  354.02</time>
   <time name="orth">    3.10    3.10</time>
   <time name="total">  480.20  480.55</time>
   <energy>
    <i name="e_fr_energy">    -36.82976734 </i>
    <i name="e_wo_entrp">    -36.82976734 </i>
    <i name="e_0_energy">    -36.82976734 </i>
   </energy>
  </scstep>
  <scstep>
   <time name="diag">   87.06   87.10</time>
   <time name="diis">  356.95  357.23</time>
   <time name="orth">    3.09    3.10</time>
   <time name="total">  483.44  483.97</time>
   <energy>
    <i name="e_fr_energy">    -36.82976735 </i>
    <i name="e_wo_entrp">    -36.82976734 </i>
    <i name="e_0_energy">    -36.82976735 </i>
   </energy>
  </scstep>
  <scstep>
   <time name="diag">   86.83   87.13</time>
   <time name="diis">  345.40  345.85</time>
   <time name="orth">    3.09    3.10</time>
   <time name="total">  471.70  472.56</time>
   <energy>
    <i name="e_fr_energy">    -36.82976734 </i>
    <i name="e_wo_entrp">    -36.82976734 </i>
    <i name="e_0_energy">    -36.82976734 </i>
   </energy>
  </scstep>
  <scstep>
   <time name="diag">   87.17   87.22</time>
   <time name="diis">  239.36  239.43</time>
   <time name="orth">    3.08    3.08</time>
   <time name="total">  365.96  366.10</time>
   <energy>
    <i name="e_fr_energy">    -36.82976735 </i>
    <i name="e_wo_entrp">    -36.82976734 </i>
    <i name="e_0_energy">    -36.82976734 </i>
   </energy>
  </scstep>
  <scstep>
   <time name="diag">   87.04   87.09</time>
   <time name="diis">  230.13  230.21</time>
   <time name="orth">    3.10    3.10</time>
   <time name="total">  322.87  323.04</time>
   <energy>
    <i name="alphaZ">      6.18334092 </i>
    <i name="ewald">   2423.65101564 </i>
    <i name="hartreedc">  -2917.99961795 </i>
    <i name="XCdc">     57.06848003 </i>
    <i name="pawpsdc">    267.26797591 </i>
    <i name="pawaedc">   -272.37251149 </i>
    <i name="eentropy">     -0.00000000 </i>
    <i name="bandstr">   -189.25197732 </i>
    <i name="atom">    588.62352690 </i>
    <i name="e_fr_energy">    -36.82976735 </i>
    <i name="e_wo_entrp">    -36.82976734 </i>
    <i name="e_0_energy">    -36.82976734 </i>
   </energy>
  </scstep>
  <structure>
   <crystal>
    <varray name="basis" >
     <v>       4.25186411       0.00000000       0.00000000 </v>
     <v>       0.00000000       2.54132194       0.00000000 </v>
     <v>       0.00000000       0.00000000      19.51235201 </v>
    </varray>
    <i name="volume">    210.83790140 </i>
    <varray name="rec_basis" >
     <v>       0.23519096       0.00000000       0.00000000 </v>
     <v>       0.00000000       0.39349599       0.00000000 </v>
     <v>       0.00000000       0.00000000       0.05124959 </v>
    </varray>
   </crystal>
   <varray name="positions" >
    <v>       0.00074214       0.00000000       0.00000000 </v>
    <v>       0.16592452       0.50000000       0.00000000 </v>
    <v>       0.50074214       0.50000000       0.00000000 </v>
    <v>       0.66592452      -0.00000000       0.00000000 </v>
   </varray>
  </structure>
  <varray name="forces" >
   <v>       0.00195055       0.00000000       0.00000000 </v>
   <v>      -0.00195055       0.00000000       0.00000000 </v>
   <v>       0.00195055       0.00000000       0.00000000 </v>
   <v>      -0.00195055      -0.00000000       0.00000000 </v>
  </varray>
  <varray name="stress" >
   <v>       0.00564042       0.00000000       0.00000000 </v>
   <v>       0.00000000     -48.69102462       0.00000000 </v>
   <v>       0.00000000       0.00000000      -0.01004877 </v>
  </varray>
  <energy>
   <i name="e_fr_energy">    -36.82976735 </i>
   <i name="e_wo_entrp">    -36.82976734 </i>
   <i name="e_0_energy">     -0.00000000 </i>
  </energy>
  <time name="totalsc"> 2604.83 2608.13</time>
 </calculation>
 <calculation>
  <scstep>
   <time name="dav">  337.64  338.09</time>
   <time name="total">  374.00  374.46</time>
   <energy>
    <i name="alphaZ">      6.18334092 </i>
    <i name="ewald">   2423.65053406 </i>
    <i name="hartreedc">  -2917.99941004 </i>
    <i name="XCdc">     57.06846628 </i>
    <i name="pawpsdc">    267.26797766 </i>
    <i name="pawaedc">   -272.37251326 </i>
    <i name="eentropy">     -0.00000000 </i>
    <i name="bandstr">   -189.25168994 </i>
    <i name="atom">    588.62352690 </i>
    <i name="e_fr_energy">    -36.82976742 </i>
    <i name="e_wo_entrp">    -36.82976742 </i>
    <i name="e_0_energy">    -36.82976742 </i>
   </energy>
  </scstep>
  <scstep>
   <time name="diag">   87.25   87.30</time>
   <time name="diis">  355.13  355.21</time>
   <time name="orth">    3.08    3.08</time>
   <time name="total">  481.84  481.99</time>
   <energy>
    <i name="e_fr_energy">    -36.82976742 </i>
    <i name="e_wo_entrp">    -36.82976742 </i>
    <i name="e_0_energy">    -36.82976742 </i>
   </energy>
  </scstep>
  <scstep>
   <time name="diag">   87.19   87.21</time>
   <time name="diis">  357.90  357.99</time>
   <time name="orth">    3.08    3.08</time>
   <time name="total">  484.51  484.66</time>
   <energy>
    <i name="e_fr_energy">    -36.82976741 </i>
    <i name="e_wo_entrp">    -36.82976741 </i>
    <i name="e_0_energy">    -36.82976741 </i>
   </energy>
  </scstep>
  <scstep>
   <time name="diag">   87.16   87.21</time>
   <time name="diis">  322.03  322.16</time>
   <time name="orth">    3.10    3.10</time>
   <time name="total">  448.58  448.82</time>
   <energy>
    <i name="e_fr_energy">    -36.82976742 </i>
    <i name="e_wo_entrp">    -36.82976741 </i>
    <i name="e_0_energy">    -36.82976741 </i>
   </energy>
  </scstep>
  <scstep>
   <time name="diag">   87.10   87.15</time>
   <time name="diis">  236.05  237.19</time>
   <time name="orth">    3.09    3.10</time>
   <time name="total">  362.47  363.88</time>
   <energy>
    <i name="e_fr_energy">    -36.82976741 </i>
    <i name="e_wo_entrp">    -36.82976741 </i>
    <i name="e_0_energy">    -36.82976741 </i>
   </energy>
  </scstep>
  <scstep>
   <time name="diag">   86.75   87.22</time>
   <time name="diis">  227.01  227.76</time>
   <time name="orth">    3.10    3.10</time>
   <time name="total">  319.52  320.76</time>
   <energy>
    <i name="alphaZ">      6.18334092 </i>
    <i name="ewald">   2423.65053406 </i>
    <i name="hartreedc">  -2917.99924128 </i>
    <i name="XCdc">     57.06845852 </i>
    <i name="pawpsdc">    267.26714729 </i>
    <i name="pawaedc">   -272.37167937 </i>
    <i name="eentropy">     -0.00000000 </i>
    <i name="bandstr">   -189.25185446 </i>
    <i name="atom">    588.62352690 </i>
    <i name="e_fr_energy">    -36.82976741 </i>
    <i name="e_wo_entrp">    -36.82976741 </i>
    <i name="e_0_energy">    -36.82976741 </i>
   </energy>
  </scstep>
  <structure>
   <crystal>
    <varray name="basis" >
     <v>       4.25186411       0.00000000       0.00000000 </v>
     <v>       0.00000000       2.54132194       0.00000000 </v>
     <v>       0.00000000       0.00000000      19.51235201 </v>
    </varray>
    <i name="volume">    210.83790140 </i>
    <varray name="rec_basis" >
     <v>       0.23519096       0.00000000       0.00000000 </v>
     <v>       0.00000000       0.39349599       0.00000000 </v>
     <v>       0.00000000       0.00000000       0.05124959 </v>
    </varray>
   </crystal>
   <varray name="positions" >
    <v>       0.00074662       0.00000000       0.00000000 </v>
    <v>       0.16592005       0.50000000       0.00000000 </v>
    <v>       0.50074662       0.50000000       0.00000000 </v>
    <v>       0.66592005      -0.00000000       0.00000000 </v>
   </varray>
  </structure>
  <varray name="forces" >
   <v>      -0.00000052      -0.00000000      -0.00000000 </v>
   <v>       0.00000052      -0.00000000       0.00000000 </v>
   <v>      -0.00000052      -0.00000000      -0.00000000 </v>
   <v>       0.00000052       0.00000000       0.00000000 </v>
  </varray>
  <varray name="stress" >
   <v>      -0.00228508       0.00000000       0.00000000 </v>
   <v>       0.00000000     -48.68685169       0.00000000 </v>
   <v>       0.00000000       0.00000000      -0.01010107 </v>
  </varray>
  <energy>
   <i name="e_fr_energy">    -36.82976741 </i>
   <i name="e_wo_entrp">    -36.82976741 </i>
   <i name="e_0_energy">     -0.00000000 </i>
  </energy>
  <time name="totalsc"> 2569.14 2572.92</time>
  <eigenvalues>
   <array>
    <dimension dim="1">band</dimension>
    <dimension dim="2">kpoint</dimension>
    <dimension dim="3">spin</dimension>
    <field>eigene</field>
    <field>occ</field>
    <set>
     <set comment="spin 1">
      <set comment="kpoint 1">
       <r>  -22.0475    1.0000 </r>
       <r>  -16.6426    1.0000 </r>
       <r>  -15.8449    1.0000 </r>
       <r>  -10.1998    1.0000 </r>
       <r>   -9.5293    1.0000 </r>
       <r>   -6.0241    1.0000 </r>
       <r>   -5.7392    1.0000 </r>
       <r>   -4.8643    1.0000 </r>
       <r>   -1.1604    0.0000 </r>
       <r>    0.5489    0.0000 </r>
       <r>    1.3463    0.0000 </r>
       <r>    1.7404    0.0000 </r>
      </set>
      <set comment="kpoint 2">
       <r>  -22.0371    1.0000 </r>
       <r>  -16.8462    1.0000 </r>
       <r>  -15.6263    1.0000 </r>
       <r>  -10.1875    1.0000 </r>
       <r>   -9.5189    1.0000 </r>
       <r>   -6.0481    1.0000 </r>
       <r>   -5.7788    1.0000 </r>
       <r>   -4.9352    1.0000 </r>
       <r>   -1.0749    0.0000 </r>
       <r>    0.5630    0.0000 </r>
       <r>    1.3606    0.0000 </r>
       <r>    1.7548    0.0000 </r>
      </set>
      <set comment="kpoint 3">
       <r>  -22.0060    1.0000 </r>
       <r>  -17.2187    1.0000 </r>
       <r>  -15.2091    1.0000 </r>
       <r>  -10.1506    1.0000 </r>
       <r>   -9.4876    1.0000 </r>
       <r>   -6.1186    1.0000 </r>
       <r>   -5.8964    1.0000 </r>
       <r>   -5.1305    1.0000 </r>
       <r>   -0.8362    0.0000 </r>
       <r>    0.6052    0.0000 </r>
       <r>    1.4032    0.0000 </r>
       <r>    1.7981    0.0000 </r>
      </set>
      <set comment="kpoint 4">
       <r>  -21.9540    1.0000 </r>
       <r>  -17.6146    1.0000 </r>
       <r>  -14.7389    1.0000 </r>
       <r>  -10.0891    1.0000 </r>
       <r>   -9.4355    1.0000 </r>
       <r>   -6.2318    1.0000 </r>
       <r>   -6.0880    1.0000 </r>
       <r>   -5.4119    1.0000 </r>
       <r>   -0.4829    0.0000 </r>
       <r>    0.6756    0.0000 </r>
       <r>    1.4743    0.0000 </r>
       <r>    1.8700    0.0000 </r>
      </set>
      <set comment="kpoint 5">
       <r>  -21.8813    1.0000 </r>
       <r>  -18.0062    1.0000 </r>
       <r>  -14.2440    1.0000 </r>
       <r>  -10.0031    1.0000 </r>
       <r>   -9.3630    1.0000 </r>
       <r>   -6.3817    1.0000 </r>
       <r>   -6.3474    1.0000 </r>
       <r>   -5.7437    1.0000 </r>
       <r>   -0.0518    0.0000 </r>
       <r>    0.7742    0.0000 </r>
       <r>    1.5737    0.0000 </r>
       <r>    1.9708    0.0000 </r>
      </set>
      <set comment="kpoint 6">
       <r>  -21.7880    1.0000 </r>
       <r>  -18.3857    1.0000 </r>
       <r>  -13.7329    1.0000 </r>
       <r>   -9.8928    1.0000 </r>
       <r>   -9.2705    1.0000 </r>
       <r>   -6.6673    1.0000 </r>
       <r>   -6.5616    1.0000 </r>
       <r>   -6.1006    1.0000 </r>
       <r>    0.4307    0.0000 </r>
       <r>    0.9008    0.0000 </r>
       <r>    1.7016    0.0000 </r>
       <r>    2.1004    0.0000 </r>
      </set>
      <set comment="kpoint 7">
       <r>  -21.6740    1.0000 </r>
       <r>  -18.7501    1.0000 </r>
       <r>  -13.2094    1.0000 </r>
       <r>   -9.7583    1.0000 </r>
       <r>   -9.1583    1.0000 </r>
       <r>   -7.0395    1.0000 </r>
       <r>   -6.7643    1.0000 </r>
       <r>   -6.4664    1.0000 </r>
       <r>    0.9467    0.0000 </r>
       <r>    1.0556    0.0000 </r>
       <r>    1.8578    0.0000 </r>
       <r>    2.2588    0.0000 </r>
      </set>
      <set comment="kpoint 8">
       <r>  -21.5395    1.0000 </r>
       <r>  -19.0979    1.0000 </r>
       <r>  -12.6763    1.0000 </r>
       <r>   -9.6000    1.0000 </r>
       <r>   -9.0271    1.0000 </r>
       <r>   -7.4561    1.0000 </r>
       <r>   -6.9828    1.0000 </r>
       <r>   -6.8309    1.0000 </r>
       <r>    1.2384    0.0000 </r>
       <r>    1.4840    0.0000 </r>
       <r>    2.0422    0.0000 </r>
       <r>    2.4460    0.0000 </r>
      </set>
      <set comment="kpoint 9">
       <r>  -21.3845    1.0000 </r>
       <r>  -19.4282    1.0000 </r>
       <r>  -12.1360    1.0000 </r>
       <r>   -9.4180    1.0000 </r>
       <r>   -8.8778    1.0000 </r>
       <r>   -7.9092    1.0000 </r>
       <r>   -7.2111    1.0000 </r>
       <r>   -7.1875    1.0000 </r>
       <r>    1.4493    0.0000 </r>
       <r>    2.0334    0.0000 </r>
       <r>    2.2548    0.0000 </r>
       <r>    2.6619    0.0000 </r>
      </set>
      <set comment="kpoint 10">
       <r>  -21.2092    1.0000 </r>
       <r>  -19.7403    1.0000 </r>
       <r>  -11.5908    1.0000 </r>
       <r>   -9.2129    1.0000 </r>
       <r>   -8.7114    1.0000 </r>
       <r>   -8.3917    1.0000 </r>
       <r>   -7.5316    1.0000 </r>
       <r>   -7.4435    1.0000 </r>
       <r>    1.6881    0.0000 </r>
       <r>    2.4955    0.0000 </r>
       <r>    2.5873    0.0000 </r>
       <r>    2.9066    0.0000 </r>
      </set>
      <set comment="kpoint 11">
       <r>  -21.0138    1.0000 </r>
       <r>  -20.0337    1.0000 </r>
       <r>  -11.0435    1.0000 </r>
       <r>   -8.9850    1.0000 </r>
       <r>   -8.8970    1.0000 </r>
       <r>   -8.5290    1.0000 </r>
       <r>   -7.8604    1.0000 </r>
       <r>   -7.6754    1.0000 </r>
       <r>    1.9547    0.0000 </r>
       <r>    2.7639    0.0000 </r>
       <r>    3.1371    0.0000 </r>
       <r>    3.1801    0.0000 </r>
      </set>
      <set comment="kpoint 12">
       <r>  -20.7983    1.0000 </r>
       <r>  -20.3080    1.0000 </r>
       <r>  -10.4969    1.0000 </r>
       <r>   -9.4196    1.0000 </r>
       <r>   -8.7349    1.0000 </r>
       <r>   -8.3322    1.0000 </r>
       <r>   -8.1715    1.0000 </r>
       <r>   -7.9029    1.0000 </r>
       <r>    2.2491    0.0000 </r>
       <r>    2.9195    0.0000 </r>
       <r>    3.0592    0.0000 </r>
       <r>    3.4849    0.0000 </r>
      </set>
      <set comment="kpoint 13">
       <r>  -20.5629    1.0000 </r>
       <r>  -20.5629    1.0000 </r>
       <r>   -9.9543    1.0000 </r>
       <r>   -9.9543    1.0000 </r>
       <r>   -8.4635    1.0000 </r>
       <r>   -8.4635    1.0000 </r>
       <r>   -8.1227    1.0000 </r>
       <r>   -8.1227    1.0000 </r>
       <r>    2.5709    0.0000 </r>
       <r>    2.5709    0.0000 </r>
       <r>    3.3782    0.0000 </r>
       <r>    3.3782    0.0000 </r>
      </set>
      <set comment="kpoint 14">
       <r>  -22.0346    1.0000 </r>
       <r>  -16.6314    1.0000 </r>
       <r>  -15.8348    1.0000 </r>
       <r>  -10.1846    1.0000 </r>
       <r>   -9.5869    1.0000 </r>
       <r>   -6.0771    1.0000 </r>
       <r>   -5.7717    1.0000 </r>
       <r>   -4.8487    1.0000 </r>
       <r>   -1.1670    0.0000 </r>
       <r>    0.5663    0.0000 </r>
       <r>    1.3640    0.0000 </r>
       <r>    1.7583    0.0000 </r>
      </set>
      <set comment="kpoint 15">
       <r>  -22.0242    1.0000 </r>
       <r>  -16.8350    1.0000 </r>
       <r>  -15.6164    1.0000 </r>
       <r>  -10.1722    1.0000 </r>
       <r>   -9.5764    1.0000 </r>
       <r>   -6.1039    1.0000 </r>
       <r>   -5.8078    1.0000 </r>
       <r>   -4.9198    1.0000 </r>
       <r>   -1.0814    0.0000 </r>
       <r>    0.5804    0.0000 </r>
       <r>    1.3782    0.0000 </r>
       <r>    1.7727    0.0000 </r>
      </set>
      <set comment="kpoint 16">
       <r>  -21.9931    1.0000 </r>
       <r>  -17.2073    1.0000 </r>
       <r>  -15.1995    1.0000 </r>
       <r>  -10.1353    1.0000 </r>
       <r>   -9.5450    1.0000 </r>
       <r>   -6.1836    1.0000 </r>
       <r>   -5.9142    1.0000 </r>
       <r>   -5.1155    1.0000 </r>
       <r>   -0.8427    0.0000 </r>
       <r>    0.6227    0.0000 </r>
       <r>    1.4209    0.0000 </r>
       <r>    1.8159    0.0000 </r>
      </set>
      <set comment="kpoint 17">
       <r>  -21.9411    1.0000 </r>
       <r>  -17.6030    1.0000 </r>
       <r>  -14.7298    1.0000 </r>
       <r>  -10.0738    1.0000 </r>
       <r>   -9.4928    1.0000 </r>
       <r>   -6.3158    1.0000 </r>
       <r>   -6.0835    1.0000 </r>
       <r>   -5.3973    1.0000 </r>
       <r>   -0.4897    0.0000 </r>
       <r>    0.6931    0.0000 </r>
       <r>    1.4919    0.0000 </r>
       <r>    1.8879    0.0000 </r>
      </set>
      <set comment="kpoint 18">
       <r>  -21.8685    1.0000 </r>
       <r>  -17.9944    1.0000 </r>
       <r>  -14.2357    1.0000 </r>
       <r>   -9.9879    1.0000 </r>
       <r>   -9.4200    1.0000 </r>
       <r>   -6.5060    1.0000 </r>
       <r>   -6.2990    1.0000 </r>
       <r>   -5.7294    1.0000 </r>
       <r>   -0.0592    0.0000 </r>
       <r>    0.7916    0.0000 </r>
       <r>    1.5914    0.0000 </r>
       <r>    1.9887    0.0000 </r>
      </set>
      <set comment="kpoint 19">
       <r>  -21.7751    1.0000 </r>
       <r>  -18.3737    1.0000 </r>
       <r>  -13.7253    1.0000 </r>
       <r>   -9.8776    1.0000 </r>
       <r>   -9.3270    1.0000 </r>
       <r>   -6.7691    1.0000 </r>
       <r>   -6.5320    1.0000 </r>
       <r>   -6.0864    1.0000 </r>
       <r>    0.4222    0.0000 </r>
       <r>    0.9183    0.0000 </r>
       <r>    1.7192    0.0000 </r>
       <r>    2.1183    0.0000 </r>
      </set>
      <set comment="kpoint 20">
       <r>  -21.6612    1.0000 </r>
       <r>  -18.7380    1.0000 </r>
       <r>  -13.2028    1.0000 </r>
       <r>   -9.7432    1.0000 </r>
       <r>   -9.2144    1.0000 </r>
       <r>   -7.1071    1.0000 </r>
       <r>   -6.7653    1.0000 </r>
       <r>   -6.4523    1.0000 </r>
       <r>    0.9368    0.0000 </r>
       <r>    1.0731    0.0000 </r>
       <r>    1.8754    0.0000 </r>
       <r>    2.2767    0.0000 </r>
      </set>
      <set comment="kpoint 21">
       <r>  -21.5267    1.0000 </r>
       <r>  -19.0857    1.0000 </r>
       <r>  -12.6710    1.0000 </r>
       <r>   -9.5849    1.0000 </r>
       <r>   -9.0826    1.0000 </r>
       <r>   -7.5034    1.0000 </r>
       <r>   -7.0008    1.0000 </r>
       <r>   -6.8168    1.0000 </r>
       <r>    1.2559    0.0000 </r>
       <r>    1.4723    0.0000 </r>
       <r>    2.0598    0.0000 </r>
       <r>    2.4639    0.0000 </r>
      </set>
      <set comment="kpoint 22">
       <r>  -21.3717    1.0000 </r>
       <r>  -19.4159    1.0000 </r>
       <r>  -12.1321    1.0000 </r>
       <r>   -9.4030    1.0000 </r>
       <r>   -8.9324    1.0000 </r>
       <r>   -7.9430    1.0000 </r>
       <r>   -7.2396    1.0000 </r>
       <r>   -7.1733    1.0000 </r>
       <r>    1.4668    0.0000 </r>
       <r>    2.0197    0.0000 </r>
       <r>    2.2724    0.0000 </r>
       <r>    2.6798    0.0000 </r>
      </set>
      <set comment="kpoint 23">
       <r>  -21.1965    1.0000 </r>
       <r>  -19.7278    1.0000 </r>
       <r>  -11.5888    1.0000 </r>
       <r>   -9.1980    1.0000 </r>
       <r>   -8.7649    1.0000 </r>
       <r>   -8.4158    1.0000 </r>
       <r>   -7.5174    1.0000 </r>
       <r>   -7.4793    1.0000 </r>
       <r>    1.7056    0.0000 </r>
       <r>    2.5131    0.0000 </r>
       <r>    2.5715    0.0000 </r>
       <r>    2.9245    0.0000 </r>
      </set>
      <set comment="kpoint 24">
       <r>  -21.0011    1.0000 </r>
       <r>  -20.0212    1.0000 </r>
       <r>  -11.0438    1.0000 </r>
       <r>   -8.9701    1.0000 </r>
       <r>   -8.9138    1.0000 </r>
       <r>   -8.5811    1.0000 </r>
       <r>   -7.8460    1.0000 </r>
       <r>   -7.7164    1.0000 </r>
       <r>    1.9723    0.0000 </r>
       <r>    2.7815    0.0000 </r>
       <r>    3.1196    0.0000 </r>
       <r>    3.1979    0.0000 </r>
      </set>
      <set comment="kpoint 25">
       <r>  -20.7856    1.0000 </r>
       <r>  -20.2954    1.0000 </r>
       <r>  -10.5000    1.0000 </r>
       <r>   -9.4307    1.0000 </r>
       <r>   -8.7202    1.0000 </r>
       <r>   -8.3825    1.0000 </r>
       <r>   -8.1570    1.0000 </r>
       <r>   -7.9479    1.0000 </r>
       <r>    2.2667    0.0000 </r>
       <r>    2.9373    0.0000 </r>
       <r>    3.0769    0.0000 </r>
       <r>    3.5000    0.0000 </r>
      </set>
      <set comment="kpoint 26">
       <r>  -20.5503    1.0000 </r>
       <r>  -20.5503    1.0000 </r>
       <r>   -9.9610    1.0000 </r>
       <r>   -9.9610    1.0000 </r>
       <r>   -8.4488    1.0000 </r>
       <r>   -8.4488    1.0000 </r>
       <r>   -8.1707    1.0000 </r>
       <r>   -8.1707    1.0000 </r>
       <r>    2.5885    0.0000 </r>
       <r>    2.5885    0.0000 </r>
       <r>    3.3959    0.0000 </r>
       <r>    3.3959    0.0000 </r>
      </set>
      <set comment="kpoint 27">
       <r>  -21.9960    1.0000 </r>
       <r>  -16.5980    1.0000 </r>
       <r>  -15.8047    1.0000 </r>
       <r>  -10.1388    1.0000 </r>
       <r>   -9.7547    1.0000 </r>
       <r>   -6.2322    1.0000 </r>
       <r>   -5.8681    1.0000 </r>
       <r>   -4.8020    1.0000 </r>
       <r>   -1.1875    0.0000 </r>
       <r>    0.6186    0.0000 </r>
       <r>    1.4171    0.0000 </r>
       <r>    1.8120    0.0000 </r>
      </set>
      <set comment="kpoint 28">
       <r>  -21.9856    1.0000 </r>
       <r>  -16.8014    1.0000 </r>
       <r>  -15.5866    1.0000 </r>
       <r>  -10.1265    1.0000 </r>
       <r>   -9.7441    1.0000 </r>
       <r>   -6.2651    1.0000 </r>
       <r>   -5.8959    1.0000 </r>
       <r>   -4.8737    1.0000 </r>
       <r>   -1.1017    0.0000 </r>
       <r>    0.6327    0.0000 </r>
       <r>    1.4313    0.0000 </r>
       <r>    1.8264    0.0000 </r>
      </set>
      <set comment="kpoint 29">
       <r>  -21.9544    1.0000 </r>
       <r>  -17.1731    1.0000 </r>
       <r>  -15.1709    1.0000 </r>
       <r>  -10.0896    1.0000 </r>
       <r>   -9.7124    1.0000 </r>
       <r>   -6.3615    1.0000 </r>
       <r>   -5.9794    1.0000 </r>
       <r>   -5.0706    1.0000 </r>
       <r>   -0.8630    0.0000 </r>
       <r>    0.6749    0.0000 </r>
       <r>    1.4739    0.0000 </r>
       <r>    1.8696    0.0000 </r>
      </set>
      <set comment="kpoint 30">
       <r>  -21.9025    1.0000 </r>
       <r>  -17.5682    1.0000 </r>
       <r>  -14.7029    1.0000 </r>
       <r>  -10.0282    1.0000 </r>
       <r>   -9.6596    1.0000 </r>
       <r>   -6.5163    1.0000 </r>
       <r>   -6.1171    1.0000 </r>
       <r>   -5.3536    1.0000 </r>
       <r>   -0.5108    0.0000 </r>
       <r>    0.7454    0.0000 </r>
       <r>    1.5449    0.0000 </r>
       <r>    1.9416    0.0000 </r>
      </set>
      <set comment="kpoint 31">
       <r>  -21.8299    1.0000 </r>
       <r>  -17.9590    1.0000 </r>
       <r>  -14.2108    1.0000 </r>
       <r>   -9.9423    1.0000 </r>
       <r>   -9.5859    1.0000 </r>
       <r>   -6.7243    1.0000 </r>
       <r>   -6.3041    1.0000 </r>
       <r>   -5.6866    1.0000 </r>
       <r>   -0.0823    0.0000 </r>
       <r>    0.8439    0.0000 </r>
       <r>    1.6444    0.0000 </r>
       <r>    2.0424    0.0000 </r>
      </set>
      <set comment="kpoint 32">
       <r>  -21.7366    1.0000 </r>
       <r>  -18.3379    1.0000 </r>
       <r>  -13.7030    1.0000 </r>
       <r>   -9.8322    1.0000 </r>
       <r>   -9.4918    1.0000 </r>
       <r>   -6.9826    1.0000 </r>
       <r>   -6.5305    1.0000 </r>
       <r>   -6.0441    1.0000 </r>
       <r>    0.3959    0.0000 </r>
       <r>    0.9706    0.0000 </r>
       <r>    1.7722    0.0000 </r>
       <r>    2.1720    0.0000 </r>
      </set>
      <set comment="kpoint 33">
       <r>  -21.6227    1.0000 </r>
       <r>  -18.7017    1.0000 </r>
       <r>  -13.1837    1.0000 </r>
       <r>   -9.6979    1.0000 </r>
       <r>   -9.3775    1.0000 </r>
       <r>   -7.2911    1.0000 </r>
       <r>   -6.7826    1.0000 </r>
       <r>   -6.4101    1.0000 </r>
       <r>    0.9061    0.0000 </r>
       <r>    1.1255    0.0000 </r>
       <r>    1.9283    0.0000 </r>
       <r>    2.3304    0.0000 </r>
      </set>
      <set comment="kpoint 34">
       <r>  -21.4882    1.0000 </r>
       <r>  -19.0491    1.0000 </r>
       <r>  -12.6556    1.0000 </r>
       <r>   -9.5398    1.0000 </r>
       <r>   -9.2436    1.0000 </r>
       <r>   -7.6491    1.0000 </r>
       <r>   -7.0466    1.0000 </r>
       <r>   -6.7745    1.0000 </r>
       <r>    1.3083    0.0000 </r>
       <r>    1.4363    0.0000 </r>
       <r>    2.1127    0.0000 </r>
       <r>    2.5176    0.0000 </r>
      </set>
      <set comment="kpoint 35">
       <r>  -21.3334    1.0000 </r>
       <r>  -19.3789    1.0000 </r>
       <r>  -12.1216    1.0000 </r>
       <r>   -9.3582    1.0000 </r>
       <r>   -9.0907    1.0000 </r>
       <r>   -8.0529    1.0000 </r>
       <r>   -7.3125    1.0000 </r>
       <r>   -7.1308    1.0000 </r>
       <r>    1.5192    0.0000 </r>
       <r>    1.9776    0.0000 </r>
       <r>    2.3252    0.0000 </r>
       <r>    2.7336    0.0000 </r>
      </set>
      <set comment="kpoint 36">
       <r>  -21.1582    1.0000 </r>
       <r>  -19.6906    1.0000 </r>
       <r>  -11.5841    1.0000 </r>
       <r>   -9.1533    1.0000 </r>
       <r>   -8.9196    1.0000 </r>
       <r>   -8.4960    1.0000 </r>
       <r>   -7.5745    1.0000 </r>
       <r>   -7.4746    1.0000 </r>
       <r>    1.7581    0.0000 </r>
       <r>    2.5228    0.0000 </r>
       <r>    2.5658    0.0000 </r>
       <r>    2.9783    0.0000 </r>
      </set>
      <set comment="kpoint 37">
       <r>  -20.9629    1.0000 </r>
       <r>  -19.9837    1.0000 </r>
       <r>  -11.0464    1.0000 </r>
       <r>   -8.9703    1.0000 </r>
       <r>   -8.9258    1.0000 </r>
       <r>   -8.7311    1.0000 </r>
       <r>   -7.8290    1.0000 </r>
       <r>   -7.8029    1.0000 </r>
       <r>    2.0248    0.0000 </r>
       <r>    2.8342    0.0000 </r>
       <r>    3.0649    0.0000 </r>
       <r>    3.2518    0.0000 </r>
      </set>
      <set comment="kpoint 38">
       <r>  -20.7476    1.0000 </r>
       <r>  -20.2577    1.0000 </r>
       <r>  -10.5118    1.0000 </r>
       <r>   -9.4686    1.0000 </r>
       <r>   -8.6761    1.0000 </r>
       <r>   -8.5265    1.0000 </r>
       <r>   -8.1136    1.0000 </r>
       <r>   -8.0738    1.0000 </r>
       <r>    2.3193    0.0000 </r>
       <r>    2.9906    0.0000 </r>
       <r>    3.1298    0.0000 </r>
       <r>    3.5643    0.0000 </r>
      </set>
      <set comment="kpoint 39">
       <r>  -20.5125    1.0000 </r>
       <r>  -20.5125    1.0000 </r>
       <r>   -9.9843    1.0000 </r>
       <r>   -9.9843    1.0000 </r>
       <r>   -8.4051    1.0000 </r>
       <r>   -8.4051    1.0000 </r>
       <r>   -8.3069    1.0000 </r>
       <r>   -8.3069    1.0000 </r>
       <r>    2.6414    0.0000 </r>
       <r>    2.6414    0.0000 </r>
       <r>    3.4490    0.0000 </r>
       <r>    3.4490    0.0000 </r>
      </set>
      <set comment="kpoint 40">
       <r>  -21.9316    1.0000 </r>
       <r>  -16.5423    1.0000 </r>
       <r>  -15.7552    1.0000 </r>
       <r>  -10.0626    1.0000 </r>
       <r>  -10.0198    1.0000 </r>
       <r>   -6.4781    1.0000 </r>
       <r>   -6.0252    1.0000 </r>
       <r>   -4.7241    1.0000 </r>
       <r>   -1.2241    0.0000 </r>
       <r>    0.7057    0.0000 </r>
       <r>    1.5054    0.0000 </r>
       <r>    1.9015    0.0000 </r>
      </set>
      <set comment="kpoint 41">
       <r>  -21.9212    1.0000 </r>
       <r>  -16.7455    1.0000 </r>
       <r>  -15.5378    1.0000 </r>
       <r>  -10.0503    1.0000 </r>
       <r>  -10.0090    1.0000 </r>
       <r>   -6.5174    1.0000 </r>
       <r>   -6.0432    1.0000 </r>
       <r>   -4.7969    1.0000 </r>
       <r>   -1.1381    0.0000 </r>
       <r>    0.7198    0.0000 </r>
       <r>    1.5196    0.0000 </r>
       <r>    1.9160    0.0000 </r>
      </set>
      <set comment="kpoint 42">
       <r>  -21.8901    1.0000 </r>
       <r>  -17.1163    1.0000 </r>
       <r>  -15.1241    1.0000 </r>
       <r>  -10.0135    1.0000 </r>
       <r>   -9.9766    1.0000 </r>
       <r>   -6.6291    1.0000 </r>
       <r>   -6.1018    1.0000 </r>
       <r>   -4.9960    1.0000 </r>
       <r>   -0.8992    0.0000 </r>
       <r>    0.7621    0.0000 </r>
       <r>    1.5622    0.0000 </r>
       <r>    1.9592    0.0000 </r>
      </set>
      <set comment="kpoint 43">
       <r>  -21.8382    1.0000 </r>
       <r>  -17.5104    1.0000 </r>
       <r>  -14.6589    1.0000 </r>
       <r>   -9.9522    1.0000 </r>
       <r>   -9.9227    1.0000 </r>
       <r>   -6.8001    1.0000 </r>
       <r>   -6.2090    1.0000 </r>
       <r>   -5.2812    1.0000 </r>
       <r>   -0.5484    0.0000 </r>
       <r>    0.8325    0.0000 </r>
       <r>    1.6332    0.0000 </r>
       <r>    2.0312    0.0000 </r>
      </set>
      <set comment="kpoint 44">
       <r>  -21.7656    1.0000 </r>
       <r>  -17.9002    1.0000 </r>
       <r>  -14.1705    1.0000 </r>
       <r>   -9.8665    1.0000 </r>
       <r>   -9.8474    1.0000 </r>
       <r>   -7.0184    1.0000 </r>
       <r>   -6.3684    1.0000 </r>
       <r>   -5.6156    1.0000 </r>
       <r>   -0.1233    0.0000 </r>
       <r>    0.9311    0.0000 </r>
       <r>    1.7326    0.0000 </r>
       <r>    2.1320    0.0000 </r>
      </set>
      <set comment="kpoint 45">
       <r>  -21.6724    1.0000 </r>
       <r>  -18.2782    1.0000 </r>
       <r>  -13.6673    1.0000 </r>
       <r>   -9.7566    1.0000 </r>
       <r>   -9.7509    1.0000 </r>
       <r>   -7.2758    1.0000 </r>
       <r>   -6.5775    1.0000 </r>
       <r>   -5.9738    1.0000 </r>
       <r>    0.3494    0.0000 </r>
       <r>    1.0579    0.0000 </r>
       <r>    1.8603    0.0000 </r>
       <r>    2.2616    0.0000 </r>
      </set>
      <set comment="kpoint 46">
       <r>  -21.5586    1.0000 </r>
       <r>  -18.6414    1.0000 </r>
       <r>  -13.1536    1.0000 </r>
       <r>   -9.6335    1.0000 </r>
       <r>   -9.6226    1.0000 </r>
       <r>   -7.5680    1.0000 </r>
       <r>   -6.8280    1.0000 </r>
       <r>   -6.3401    1.0000 </r>
       <r>    0.8522    0.0000 </r>
       <r>    1.2127    0.0000 </r>
       <r>    2.0164    0.0000 </r>
       <r>    2.4200    0.0000 </r>
      </set>
      <set comment="kpoint 47">
       <r>  -21.4243    1.0000 </r>
       <r>  -18.9881    1.0000 </r>
       <r>  -12.6327    1.0000 </r>
       <r>   -9.4955    1.0000 </r>
       <r>   -9.4648    1.0000 </r>
       <r>   -7.8942    1.0000 </r>
       <r>   -7.1075    1.0000 </r>
       <r>   -6.7043    1.0000 </r>
       <r>    1.3733    0.0000 </r>
       <r>    1.3957    0.0000 </r>
       <r>    2.2007    0.0000 </r>
       <r>    2.6072    0.0000 </r>
      </set>
      <set comment="kpoint 48">
       <r>  -21.2695    1.0000 </r>
       <r>  -19.3174    1.0000 </r>
       <r>  -12.1074    1.0000 </r>
       <r>   -9.3371    1.0000 </r>
[...]
       <r>   -8.9702    1.0000 </r>
       <r>   -5.6761    1.0000 </r>
       <r>   -5.6761    1.0000 </r>
       <r>   -0.5995    0.0000 </r>
       <r>   -0.5995    0.0000 </r>
       <r>    4.8029    0.0000 </r>
       <r>    4.8029    0.0000 </r>
      </set>
      <set comment="kpoint 209">
       <r>  -18.8372    1.0000 </r>
       <r>  -17.1692    1.0000 </r>
       <r>  -13.8218    1.0000 </r>
       <r>  -12.2904    1.0000 </r>
       <r>  -12.2790    1.0000 </r>
       <r>  -10.8412    1.0000 </r>
       <r>   -6.5120    1.0000 </r>
       <r>   -4.7299    1.0000 </r>
       <r>   -0.9977    0.0000 </r>
       <r>    1.0347    0.0000 </r>
       <r>    4.9923    0.0000 </r>
       <r>    5.7815    0.0000 </r>
      </set>
      <set comment="kpoint 210">
       <r>  -18.8275    1.0000 </r>
       <r>  -17.1618    1.0000 </r>
       <r>  -13.9155    1.0000 </r>
       <r>  -12.3682    1.0000 </r>
       <r>  -12.1879    1.0000 </r>
       <r>  -10.7534    1.0000 </r>
       <r>   -6.5032    1.0000 </r>
       <r>   -4.7318    1.0000 </r>
       <r>   -1.0092    0.0000 </r>
       <r>    1.0086    0.0000 </r>
       <r>    5.0060    0.0000 </r>
       <r>    5.7978    0.0000 </r>
      </set>
      <set comment="kpoint 211">
       <r>  -18.7983    1.0000 </r>
       <r>  -17.1401    1.0000 </r>
       <r>  -14.1434    1.0000 </r>
       <r>  -12.5885    1.0000 </r>
       <r>  -11.9342    1.0000 </r>
       <r>  -10.5380    1.0000 </r>
       <r>   -6.4769    1.0000 </r>
       <r>   -4.7379    1.0000 </r>
       <r>   -1.0417    0.0000 </r>
       <r>    0.9323    0.0000 </r>
       <r>    5.0472    0.0000 </r>
       <r>    5.8462    0.0000 </r>
      </set>
      <set comment="kpoint 212">
       <r>  -18.7496    1.0000 </r>
       <r>  -17.1054    1.0000 </r>
       <r>  -14.4283    1.0000 </r>
       <r>  -12.8709    1.0000 </r>
       <r>  -11.6062    1.0000 </r>
       <r>  -10.2659    1.0000 </r>
       <r>   -6.4333    1.0000 </r>
       <r>   -4.7499    1.0000 </r>
       <r>   -1.0899    0.0000 </r>
       <r>    0.8115    0.0000 </r>
       <r>    5.1156    0.0000 </r>
       <r>    5.9256    0.0000 </r>
      </set>
      <set comment="kpoint 213">
       <r>  -18.6818    1.0000 </r>
       <r>  -17.0604    1.0000 </r>
       <r>  -14.7271    1.0000 </r>
       <r>  -13.1773    1.0000 </r>
       <r>  -11.2469    1.0000 </r>
       <r>   -9.9788    1.0000 </r>
       <r>   -6.3731    1.0000 </r>
       <r>   -4.7700    1.0000 </r>
       <r>   -1.1456    0.0000 </r>
       <r>    0.6541    0.0000 </r>
       <r>    5.2103    0.0000 </r>
       <r>    6.0347    0.0000 </r>
      </set>
      <set comment="kpoint 214">
       <r>  -18.5951    1.0000 </r>
       <r>  -17.0102    1.0000 </r>
       <r>  -15.0164    1.0000 </r>
       <r>  -13.4898    1.0000 </r>
       <r>  -10.8779    1.0000 </r>
       <r>   -9.6994    1.0000 </r>
       <r>   -6.2970    1.0000 </r>
       <r>   -4.8013    1.0000 </r>
       <r>   -1.1993    0.0000 </r>
       <r>    0.4691    0.0000 </r>
       <r>    5.3283    0.0000 </r>
       <r>    6.1810    0.0000 </r>
      </set>
      <set comment="kpoint 215">
       <r>  -18.4899    1.0000 </r>
       <r>  -16.9641    1.0000 </r>
       <r>  -15.2782    1.0000 </r>
       <r>  -13.7990    1.0000 </r>
       <r>  -10.5127    1.0000 </r>
       <r>   -9.4428    1.0000 </r>
       <r>   -6.2060    1.0000 </r>
       <r>   -4.8466    1.0000 </r>
       <r>   -1.2412    0.0000 </r>
       <r>    0.2658    0.0000 </r>
       <r>    5.4448    0.0000 </r>
       <r>    5.7715    0.0000 </r>
      </set>
      <set comment="kpoint 216">
       <r>  -18.3667    1.0000 </r>
       <r>  -16.9379    1.0000 </r>
       <r>  -15.4917    1.0000 </r>
       <r>  -14.0995    1.0000 </r>
       <r>  -10.1616    1.0000 </r>
       <r>   -9.2212    1.0000 </r>
       <r>   -6.1016    1.0000 </r>
       <r>   -4.9084    1.0000 </r>
       <r>   -1.2624    0.0000 </r>
       <r>    0.0528    0.0000 </r>
       <r>    5.2932    0.0000 </r>
       <r>    5.7183    0.0000 </r>
      </set>
      <set comment="kpoint 217">
       <r>  -18.2265    1.0000 </r>
       <r>  -16.9549    1.0000 </r>
       <r>  -15.6311    1.0000 </r>
       <r>  -14.3873    1.0000 </r>
       <r>   -9.8343    1.0000 </r>
       <r>   -9.0453    1.0000 </r>
       <r>   -5.9855    1.0000 </r>
       <r>   -4.9880    1.0000 </r>
       <r>   -1.2564    0.0000 </r>
       <r>   -0.1620    0.0000 </r>
       <r>    5.0041    0.0000 </r>
       <r>    5.8205    0.0000 </r>
      </set>
      <set comment="kpoint 218">
       <r>  -18.0702    1.0000 </r>
       <r>  -17.0335    1.0000 </r>
       <r>  -15.6761    1.0000 </r>
       <r>  -14.6594    1.0000 </r>
       <r>   -9.5402    1.0000 </r>
       <r>   -8.9244    1.0000 </r>
       <r>   -5.8598    1.0000 </r>
       <r>   -5.0850    1.0000 </r>
       <r>   -1.2187    0.0000 </r>
       <r>   -0.3717    0.0000 </r>
       <r>    4.7841    0.0000 </r>
       <r>    5.4205    0.0000 </r>
      </set>
      <set comment="kpoint 219">
       <r>  -17.8998    1.0000 </r>
       <r>  -17.1699    1.0000 </r>
       <r>  -15.6295    1.0000 </r>
       <r>  -14.9125    1.0000 </r>
       <r>   -9.2888    1.0000 </r>
       <r>   -8.8656    1.0000 </r>
       <r>   -5.7272    1.0000 </r>
       <r>   -5.1973    1.0000 </r>
       <r>   -1.1478    0.0000 </r>
       <r>   -0.5702    0.0000 </r>
       <r>    4.6537    0.0000 </r>
       <r>    5.0911    0.0000 </r>
      </set>
      <set comment="kpoint 220">
       <r>  -17.7181    1.0000 </r>
       <r>  -17.3423    1.0000 </r>
       <r>  -15.5124    1.0000 </r>
       <r>  -15.1430    1.0000 </r>
       <r>   -9.0891    1.0000 </r>
       <r>   -8.8734    1.0000 </r>
       <r>   -5.5909    1.0000 </r>
       <r>   -5.3218    1.0000 </r>
       <r>   -1.0446    0.0000 </r>
       <r>   -0.7517    0.0000 </r>
       <r>    4.6195    0.0000 </r>
       <r>    4.8425    0.0000 </r>
      </set>
      <set comment="kpoint 221">
       <r>  -17.5296    1.0000 </r>
       <r>  -17.5296    1.0000 </r>
       <r>  -15.3457    1.0000 </r>
       <r>  -15.3457    1.0000 </r>
       <r>   -8.9488    1.0000 </r>
       <r>   -8.9488    1.0000 </r>
       <r>   -5.4544    1.0000 </r>
       <r>   -5.4544    1.0000 </r>
       <r>   -0.9113    0.0000 </r>
       <r>   -0.9113    0.0000 </r>
       <r>    4.6833    0.0000 </r>
       <r>    4.6833    0.0000 </r>
      </set>
      <set comment="kpoint 222">
       <r>  -18.4419    1.0000 </r>
       <r>  -17.6041    1.0000 </r>
       <r>  -13.4645    1.0000 </r>
       <r>  -12.6923    1.0000 </r>
       <r>  -11.9629    1.0000 </r>
       <r>  -11.2338    1.0000 </r>
       <r>   -6.0797    1.0000 </r>
       <r>   -5.1840    1.0000 </r>
       <r>   -0.5211    0.0000 </r>
       <r>    0.4970    0.0000 </r>
       <r>    5.5551    0.0000 </r>
       <r>    6.3141    0.0000 </r>
      </set>
      <set comment="kpoint 223">
       <r>  -18.4324    1.0000 </r>
       <r>  -17.5955    1.0000 </r>
       <r>  -13.5592    1.0000 </r>
       <r>  -12.7842    1.0000 </r>
       <r>  -11.8623    1.0000 </r>
       <r>  -11.1408    1.0000 </r>
       <r>   -6.0722    1.0000 </r>
       <r>   -5.1812    1.0000 </r>
       <r>   -0.5385    0.0000 </r>
       <r>    0.4730    0.0000 </r>
       <r>    5.5688    0.0000 </r>
       <r>    6.3312    0.0000 </r>
      </set>
      <set comment="kpoint 224">
       <r>  -18.4038    1.0000 </r>
       <r>  -17.5700    1.0000 </r>
       <r>  -13.7897    1.0000 </r>
       <r>  -13.0096    1.0000 </r>
       <r>  -11.6145    1.0000 </r>
       <r>  -10.9127    1.0000 </r>
       <r>   -6.0497    1.0000 </r>
       <r>   -5.1733    1.0000 </r>
       <r>   -0.5888    0.0000 </r>
       <r>    0.4026    0.0000 </r>
       <r>    5.6098    0.0000 </r>
       <r>    6.3819    0.0000 </r>
      </set>
      <set comment="kpoint 225">
       <r>  -18.3564    1.0000 </r>
       <r>  -17.5282    1.0000 </r>
       <r>  -14.0801    1.0000 </r>
       <r>  -13.2968    1.0000 </r>
       <r>  -11.2964    1.0000 </r>
       <r>  -10.6230    1.0000 </r>
       <r>   -6.0128    1.0000 </r>
       <r>   -5.1612    1.0000 </r>
       <r>   -0.6666    0.0000 </r>
       <r>    0.2915    0.0000 </r>
       <r>    5.6776    0.0000 </r>
       <r>    6.4647    0.0000 </r>
      </set>
      <set comment="kpoint 226">
       <r>  -18.2904    1.0000 </r>
       <r>  -17.4710    1.0000 </r>
       <r>  -14.3891    1.0000 </r>
       <r>  -13.6067    1.0000 </r>
       <r>  -10.9509    1.0000 </r>
       <r>  -10.3138    1.0000 </r>
       <r>   -5.9622    1.0000 </r>
       <r>   -5.1469    1.0000 </r>
       <r>   -0.7638    0.0000 </r>
       <r>    0.1476    0.0000 </r>
       <r>    5.7708    0.0000 </r>
       <r>    6.5779    0.0000 </r>
      </set>
      <set comment="kpoint 227">
       <r>  -18.2063    1.0000 </r>
       <r>  -17.4005    1.0000 </r>
       <r>  -14.6968    1.0000 </r>
       <r>  -13.9210    1.0000 </r>
       <r>  -10.5998    1.0000 </r>
       <r>  -10.0075    1.0000 </r>
       <r>   -5.8992    1.0000 </r>
       <r>   -5.1329    1.0000 </r>
       <r>   -0.8706    0.0000 </r>
       <r>   -0.0200    0.0000 </r>
       <r>    5.8813    0.0000 </r>
       <r>    6.4539    0.0000 </r>
      </set>
      <set comment="kpoint 228">
       <r>  -18.1048    1.0000 </r>
       <r>  -17.3199    1.0000 </r>
       <r>  -14.9912    1.0000 </r>
       <r>  -14.2303    1.0000 </r>
       <r>  -10.2568    1.0000 </r>
       <r>   -9.7189    1.0000 </r>
       <r>   -5.8253    1.0000 </r>
       <r>   -5.1224    1.0000 </r>
       <r>   -0.9766    0.0000 </r>
       <r>   -0.2016    0.0000 </r>
       <r>    5.8665    0.0000 </r>
       <r>    6.1376    0.0000 </r>
      </set>
      <set comment="kpoint 229">
       <r>  -17.9869    1.0000 </r>
       <r>  -17.2350    1.0000 </r>
       <r>  -15.2617    1.0000 </r>
       <r>  -14.5287    1.0000 </r>
       <r>   -9.9329    1.0000 </r>
       <r>   -9.4598    1.0000 </r>
       <r>   -5.7425    1.0000 </r>
       <r>   -5.1190    1.0000 </r>
       <r>   -1.0713    0.0000 </r>
       <r>   -0.3881    0.0000 </r>
       <r>    5.4984    0.0000 </r>
       <r>    5.9885    0.0000 </r>
      </set>
      <set comment="kpoint 230">
       <r>  -17.8542    1.0000 </r>
       <r>  -17.1563    1.0000 </r>
       <r>  -15.4952    1.0000 </r>
       <r>  -14.8116    1.0000 </r>
       <r>   -9.6381    1.0000 </r>
       <r>   -9.2409    1.0000 </r>
       <r>   -5.6536    1.0000 </r>
       <r>   -5.1261    1.0000 </r>
       <r>   -1.1456    0.0000 </r>
       <r>   -0.5709    0.0000 </r>
       <r>    5.1518    0.0000 </r>
       <r>    5.5612    0.0000 </r>
      </set>
      <set comment="kpoint 231">
       <r>  -17.7092    1.0000 </r>
       <r>  -17.1011    1.0000 </r>
       <r>  -15.6724    1.0000 </r>
       <r>  -15.0747    1.0000 </r>
       <r>   -9.3821    1.0000 </r>
       <r>   -9.0718    1.0000 </r>
       <r>   -5.5614    1.0000 </r>
       <r>   -5.1470    1.0000 </r>
       <r>   -1.1916    0.0000 </r>
       <r>   -0.7420    0.0000 </r>
       <r>    4.8795    0.0000 </r>
       <r>    5.1993    0.0000 </r>
      </set>
      <set comment="kpoint 232">
       <r>  -17.5561    1.0000 </r>
       <r>  -17.0934    1.0000 </r>
       <r>  -15.7685    1.0000 </r>
       <r>  -15.3125    1.0000 </r>
       <r>   -9.1743    1.0000 </r>
       <r>   -8.9610    1.0000 </r>
       <r>   -5.4696    1.0000 </r>
       <r>   -5.1834    1.0000 </r>
       <r>   -1.2038    0.0000 </r>
       <r>   -0.8943    0.0000 </r>
       <r>    4.6942    0.0000 </r>
       <r>    4.9142    0.0000 </r>
      </set>
      <set comment="kpoint 233">
       <r>  -17.4020    1.0000 </r>
       <r>  -17.1490    1.0000 </r>
       <r>  -15.7668    1.0000 </r>
       <r>  -15.5171    1.0000 </r>
       <r>   -9.0233    1.0000 </r>
       <r>   -8.9145    1.0000 </r>
       <r>   -5.3821    1.0000 </r>
       <r>   -5.2359    1.0000 </r>
       <r>   -1.1792    0.0000 </r>
       <r>   -1.0214    0.0000 </r>
       <r>    4.6034    0.0000 </r>
       <r>    4.7156    0.0000 </r>
      </set>
      <set comment="kpoint 234">
       <r>  -17.2596    1.0000 </r>
       <r>  -17.2596    1.0000 </r>
       <r>  -15.6753    1.0000 </r>
       <r>  -15.6753    1.0000 </r>
       <r>   -8.9354    1.0000 </r>
       <r>   -8.9354    1.0000 </r>
       <r>   -5.3030    1.0000 </r>
       <r>   -5.3030    1.0000 </r>
       <r>   -1.1177    0.0000 </r>
       <r>   -1.1177    0.0000 </r>
       <r>    4.6106    0.0000 </r>
       <r>    4.6106    0.0000 </r>
      </set>
      <set comment="kpoint 235">
       <r>  -18.0299    1.0000 </r>
       <r>  -18.0299    1.0000 </r>
       <r>  -13.0878    1.0000 </r>
       <r>  -13.0878    1.0000 </r>
       <r>  -11.6090    1.0000 </r>
       <r>  -11.6090    1.0000 </r>
       <r>   -5.6356    1.0000 </r>
       <r>   -5.6356    1.0000 </r>
       <r>   -0.0222    0.0000 </r>
       <r>   -0.0222    0.0000 </r>
       <r>    6.1461    0.0000 </r>
       <r>    6.1461    0.0000 </r>
      </set>
      <set comment="kpoint 236">
       <r>  -18.0207    1.0000 </r>
       <r>  -18.0207    1.0000 </r>
       <r>  -13.1816    1.0000 </r>
       <r>  -13.1816    1.0000 </r>
       <r>  -11.5117    1.0000 </r>
       <r>  -11.5117    1.0000 </r>
       <r>   -5.6300    1.0000 </r>
       <r>   -5.6300    1.0000 </r>
       <r>   -0.0436    0.0000 </r>
       <r>   -0.0436    0.0000 </r>
       <r>    6.1597    0.0000 </r>
       <r>    6.1597    0.0000 </r>
      </set>
      <set comment="kpoint 237">
       <r>  -17.9932    1.0000 </r>
       <r>  -17.9932    1.0000 </r>
       <r>  -13.4107    1.0000 </r>
       <r>  -13.4107    1.0000 </r>
       <r>  -11.2726    1.0000 </r>
       <r>  -11.2726    1.0000 </r>
       <r>   -5.6132    1.0000 </r>
       <r>   -5.6132    1.0000 </r>
       <r>   -0.1057    0.0000 </r>
       <r>   -0.1057    0.0000 </r>
       <r>    6.2004    0.0000 </r>
       <r>    6.2004    0.0000 </r>
      </set>
      <set comment="kpoint 238">
       <r>  -17.9478    1.0000 </r>
       <r>  -17.9478    1.0000 </r>
       <r>  -13.7010    1.0000 </r>
       <r>  -13.7010    1.0000 </r>
       <r>  -10.9675    1.0000 </r>
       <r>  -10.9675    1.0000 </r>
       <r>   -5.5861    1.0000 </r>
       <r>   -5.5861    1.0000 </r>
       <r>   -0.2032    0.0000 </r>
       <r>   -0.2032    0.0000 </r>
       <r>    6.2674    0.0000 </r>
       <r>    6.2674    0.0000 </r>
      </set>
      <set comment="kpoint 239">
       <r>  -17.8849    1.0000 </r>
       <r>  -17.8849    1.0000 </r>
       <r>  -14.0123    1.0000 </r>
       <r>  -14.0123    1.0000 </r>
       <r>  -10.6388    1.0000 </r>
       <r>  -10.6388    1.0000 </r>
       <r>   -5.5499    1.0000 </r>
       <r>   -5.5499    1.0000 </r>
       <r>   -0.3281    0.0000 </r>
       <r>   -0.3281    0.0000 </r>
       <r>    6.3577    0.0000 </r>
       <r>    6.3577    0.0000 </r>
      </set>
      <set comment="kpoint 240">
       <r>  -17.8054    1.0000 </r>
       <r>  -17.8054    1.0000 </r>
       <r>  -14.3259    1.0000 </r>
       <r>  -14.3259    1.0000 </r>
       <r>  -10.3087    1.0000 </r>
       <r>  -10.3087    1.0000 </r>
       <r>   -5.5063    1.0000 </r>
       <r>   -5.5063    1.0000 </r>
       <r>   -0.4709    0.0000 </r>
       <r>   -0.4709    0.0000 </r>
       <r>    6.4427    0.0000 </r>
       <r>    6.4455    0.0000 </r>
      </set>
      <set comment="kpoint 241">
       <r>  -17.7106    1.0000 </r>
       <r>  -17.7106    1.0000 </r>
       <r>  -14.6317    1.0000 </r>
       <r>  -14.6317    1.0000 </r>
       <r>   -9.9913    1.0000 </r>
       <r>   -9.9913    1.0000 </r>
       <r>   -5.4578    1.0000 </r>
       <r>   -5.4578    1.0000 </r>
       <r>   -0.6217    0.0000 </r>
       <r>   -0.6217    0.0000 </r>
       <r>    6.1683    0.0000 </r>
       <r>    6.1685    0.0000 </r>
      </set>
      <set comment="kpoint 242">
       <r>  -17.6029    1.0000 </r>
       <r>  -17.6029    1.0000 </r>
       <r>  -14.9228    1.0000 </r>
       <r>  -14.9228    1.0000 </r>
       <r>   -9.6980    1.0000 </r>
       <r>   -9.6980    1.0000 </r>
       <r>   -5.4072    1.0000 </r>
       <r>   -5.4072    1.0000 </r>
       <r>   -0.7704    0.0000 </r>
       <r>   -0.7704    0.0000 </r>
       <r>    5.7281    0.0000 </r>
       <r>    5.7281    0.0000 </r>
      </set>
      <set comment="kpoint 243">
       <r>  -17.4859    1.0000 </r>
       <r>  -17.4859    1.0000 </r>
       <r>  -15.1924    1.0000 </r>
       <r>  -15.1924    1.0000 </r>
       <r>   -9.4393    1.0000 </r>
       <r>   -9.4393    1.0000 </r>
       <r>   -5.3580    1.0000 </r>
       <r>   -5.3580    1.0000 </r>
       <r>   -0.9077    0.0000 </r>
       <r>   -0.9077    0.0000 </r>
       <r>    5.3377    0.0000 </r>
       <r>    5.3377    0.0000 </r>
      </set>
      <set comment="kpoint 244">
       <r>  -17.3661    1.0000 </r>
       <r>  -17.3661    1.0000 </r>
       <r>  -15.4324    1.0000 </r>
       <r>  -15.4324    1.0000 </r>
       <r>   -9.2251    1.0000 </r>
       <r>   -9.2251    1.0000 </r>
       <r>   -5.3140    1.0000 </r>
       <r>   -5.3140    1.0000 </r>
       <r>   -1.0250    0.0000 </r>
       <r>   -1.0250    0.0000 </r>
       <r>    5.0183    0.0000 </r>
       <r>    5.0183    0.0000 </r>
      </set>
      <set comment="kpoint 245">
       <r>  -17.2550    1.0000 </r>
       <r>  -17.2550    1.0000 </r>
       <r>  -15.6301    1.0000 </r>
       <r>  -15.6301    1.0000 </r>
       <r>   -9.0644    1.0000 </r>
       <r>   -9.0644    1.0000 </r>
       <r>   -5.2790    1.0000 </r>
       <r>   -5.2790    1.0000 </r>
       <r>   -1.1148    0.0000 </r>
       <r>   -1.1148    0.0000 </r>
       <r>    4.7814    0.0000 </r>
       <r>    4.7814    0.0000 </r>
      </set>
      <set comment="kpoint 246">
       <r>  -17.1716    1.0000 </r>
       <r>  -17.1716    1.0000 </r>
       <r>  -15.7658    1.0000 </r>
       <r>  -15.7658    1.0000 </r>
       <r>   -8.9647    1.0000 </r>
       <r>   -8.9647    1.0000 </r>
       <r>   -5.2565    1.0000 </r>
       <r>   -5.2565    1.0000 </r>
       <r>   -1.1712    0.0000 </r>
       <r>   -1.1712    0.0000 </r>
       <r>    4.6355    0.0000 </r>
       <r>    4.6355    0.0000 </r>
      </set>
      <set comment="kpoint 247">
       <r>  -17.1396    1.0000 </r>
       <r>  -17.1396    1.0000 </r>
       <r>  -15.8152    1.0000 </r>
       <r>  -15.8152    1.0000 </r>
       <r>   -8.9308    1.0000 </r>
       <r>   -8.9308    1.0000 </r>
       <r>   -5.2487    1.0000 </r>
       <r>   -5.2487    1.0000 </r>
       <r>   -1.1905    0.0000 </r>
       <r>   -1.1905    0.0000 </r>
       <r>    4.5863    0.0000 </r>
       <r>    4.5863    0.0000 </r>
      </set>
     </set>
    </set>
   </array>
  </eigenvalues>
  <separator name="orbital magnetization" >
   <v name="MAGDIPOLOUT">      0.00000000      0.00000000      0.00000000</v>
  </separator>
 </calculation>
 <structure name="finalpos" >
  <crystal>
   <varray name="basis" >
    <v>       4.25186411       0.00000000       0.00000000 </v>
    <v>       0.00000000       2.54132194       0.00000000 </v>
    <v>       0.00000000       0.00000000      19.51235201 </v>
   </varray>
   <i name="volume">    210.83790140 </i>
   <varray name="rec_basis" >
    <v>       0.23519096       0.00000000       0.00000000 </v>
    <v>       0.00000000       0.39349599       0.00000000 </v>
    <v>       0.00000000       0.00000000       0.05124959 </v>
   </varray>
  </crystal>
  <varray name="positions" >
   <v>       0.00074662       0.00000000       0.00000000 </v>
   <v>       0.16592005       0.50000000       0.00000000 </v>
   <v>       0.50074662       0.50000000       0.00000000 </v>
   <v>       0.66592005      -0.00000000       0.00000000 </v>
  </varray>
 </structure>
</modeling>
