gr                                      
           1
     4.251864    0.000000    0.000000
     0.000000    2.541322    0.000000
     0.000000    0.000000   19.512352
   C 
   4
Direct configuration=     1
   0.00074775  0.00000000  0.00000000
   0.16591892  0.50000000  0.00000000
   0.50074775  0.50000000  0.00000000
   0.66591892  0.00000000  0.00000000
Direct configuration=     2
   0.00074214  0.00000000  0.00000000
   0.16592452  0.50000000  0.00000000
   0.50074214  0.50000000  0.00000000
   0.66592452 -0.00000000  0.00000000
Direct configuration=     3
   0.00074662  0.00000000  0.00000000
   0.16592005  0.50000000  0.00000000
   0.50074662  0.50000000  0.00000000
   0.66592005 -0.00000000  0.00000000
