    4    4  400    1
  0.5270948E+02  0.4359797E-09  0.2458880E-09  0.1966731E-08  0.5000000E-15
  1.000000000000000E-004
  CAR 
 gr                                      
     16    247     12
 
  0.0000000E+00  0.0000000E+00  0.0000000E+00  0.1157407E-02
    1      -22.113568
    2      -17.214852
    3      -15.861012
    4      -10.250773
    5       -8.869285
    6       -5.967338
    7       -5.736935
    8       -5.293941
    9       -1.166817
   10        0.540731
   11        1.339426
   12        1.730796
 
  0.4166667E-01  0.0000000E+00  0.0000000E+00  0.2314815E-02
    1      -22.103719
    2      -17.340316
    3      -15.720513
    4      -10.239071
    5       -8.859702
    6       -6.011343
    7       -5.757464
    8       -5.354076
    9       -1.090902
   10        0.554060
   11        1.352945
   12        1.744484
 
  0.8333333E-01  0.0000000E+00  0.0000000E+00  0.2314815E-02
    1      -22.074177
    2      -17.625040
    3      -15.390765
    4      -10.203983
    5       -8.831002
    6       -6.141314
    7       -5.817968
    8       -5.522087
    9       -0.875710
   10        0.594053
   11        1.393498
   12        1.785548
 
  0.1250000E+00  0.0000000E+00  0.0000000E+00  0.2314815E-02
    1      -22.024961
    2      -17.964182
    3      -14.976840
    4      -10.145568
    5       -8.783337
    6       -6.351505
    7       -5.915380
    8       -5.769655
    9       -0.550041
   10        0.660727
   11        1.461069
   12        1.853992
 
  0.1666667E+00  0.0000000E+00  0.0000000E+00  0.2314815E-02
    1      -21.956107
    2      -18.315666
    3      -14.521216
    4      -10.063922
    5       -8.716969
    6       -6.633487
    7       -6.067518
    8       -6.045094
    9       -0.143970
   10        0.754101
   11        1.555634
   12        1.949821
 
  0.2083333E+00  0.0000000E+00  0.0000000E+00  0.2314815E-02
    1      -21.867666
    2      -18.663933
    3      -14.040027
    4       -9.959189
    5       -8.632272
    6       -6.977383
    7       -6.392957
    8       -6.201568
    9        0.318605
   10        0.874189
   11        1.677151
   12        2.073035
 
  0.2500000E+00  0.0000000E+00  0.0000000E+00  0.2314815E-02
    1      -21.759700
    2      -19.002309
    3      -13.540709
    4       -9.831559
    5       -8.529748
    6       -7.372981
    7       -6.730297
    8       -6.378890
    9        0.820426
   10        1.020988
   11        1.825557
   12        2.223637
 
  0.2916667E+00  0.0000000E+00  0.0000000E+00  0.2314815E-02
    1      -21.632295
    2      -19.327464
    3      -13.027568
    4       -9.681279
    5       -8.410040
    6       -7.810524
    7       -7.069106
    8       -6.571244
    9        1.194482
   10        1.348974
   11        2.000752
   12        2.401624
 
  0.3333333E+00  0.0000000E+00  0.0000000E+00  0.2314815E-02
    1      -21.485551
    2      -19.637516
    3      -12.503703
    4       -9.508664
    5       -8.281160
    6       -8.273956
    7       -7.402416
    8       -6.773213
    9        1.394639
   10        1.894447
   11        2.202567
   12        2.606993
 
  0.3750000E+00  0.0000000E+00  0.0000000E+00  0.2314815E-02
    1      -21.319590
    2      -19.931292
    3      -11.971788
    4       -9.314108
    5       -8.777119
    6       -8.122491
    7       -7.725485
    8       -6.979943
    9        1.621411
   10        2.430687
   11        2.447637
   12        2.839735
 
  0.4166667E+00  0.0000000E+00  0.0000000E+00  0.2314815E-02
    1      -21.134560
    2      -20.207994
    3      -11.434436
    4       -9.291709
    5       -9.098108
    6       -8.034994
    7       -7.956860
    8       -7.187198
    9        1.874733
   10        2.684421
   11        2.993972
   12        3.099839
 
  0.4583333E+00  0.0000000E+00  0.0000000E+00  0.2314815E-02
    1      -20.930640
    2      -20.467055
    3      -10.894423
    4       -9.819230
    5       -8.861286
    6       -8.328562
    7       -7.778541
    8       -7.391347
    9        2.154515
   10        2.792939
   11        2.961786
   12        3.387292
 
  0.5000000E+00  0.0000000E+00  0.0000000E+00  0.1157407E-02
    1      -20.708049
    2      -20.708049
    3      -10.354842
    4      -10.354842
    5       -8.604432
    6       -8.604432
    7       -7.589320
    8       -7.589320
    9        2.460640
   10        2.460640
   11        3.253490
   12        3.253490
 
  0.0000000E+00  0.2777778E-01  0.0000000E+00  0.2314815E-02
    1      -22.099768
    2      -17.202897
    3      -15.849257
    4      -10.234375
    5       -8.932293
    6       -5.994175
    7       -5.795595
    8       -5.277262
    9       -1.169522
   10        0.559433
   11        1.358326
   12        1.749932
 
  0.4166667E-01  0.2777778E-01  0.0000000E+00  0.4629630E-02
    1      -22.089920
    2      -17.328235
    3      -15.708931
    4      -10.222676
    5       -8.922697
    6       -6.039306
    7       -5.814379
    8       -5.337516
    9       -1.093592
   10        0.572762
   11        1.371844
   12        1.763620
 
  0.8333333E-01  0.2777778E-01  0.0000000E+00  0.4629630E-02
    1      -22.060382
    2      -17.612730
    3      -15.379549
    4      -10.187601
    5       -8.893959
    6       -6.170708
    7       -5.871713
    8       -5.505807
    9       -0.878435
   10        0.612755
   11        1.412395
   12        1.804685
 
  0.1250000E+00  0.2777778E-01  0.0000000E+00  0.4629630E-02
    1      -22.011174
    2      -17.951657
    3      -14.966075
    4      -10.129205
    5       -8.846229
    6       -6.380492
    7       -5.966958
    8       -5.753674
    9       -0.552992
   10        0.679430
   11        1.479963
   12        1.873129
 
  0.1666667E+00  0.2777778E-01  0.0000000E+00  0.4629630E-02
    1      -21.942331
    2      -18.302954
    3      -14.510977
    4      -10.047587
    5       -8.779762
    6       -6.660117
    7       -6.095986
    8       -6.051769
    9       -0.147428
   10        0.772807
   11        1.574523
   12        1.968958
 
  0.2083333E+00  0.2777778E-01  0.0000000E+00  0.4629630E-02
    1      -21.853904
    2      -18.651059
    3      -14.030402
    4       -9.942889
    5       -8.694928
    6       -7.000417
    7       -6.377350
    8       -6.252871
    9        0.314339
   10        0.892899
   11        1.696035
   12        2.092174
 
  0.2500000E+00  0.2777778E-01  0.0000000E+00  0.4629630E-02
    1      -21.745957
    2      -18.989296
    3      -13.531804
    4       -9.815302
    5       -8.592219
    6       -7.391883
    7       -6.714755
    8       -6.431240
    9        0.815068
   10        1.039703
   11        1.844435
   12        2.242777
 
  0.2916667E+00  0.2777778E-01  0.0000000E+00  0.4629630E-02
    1      -21.618575
    2      -19.314332
    3      -13.019509
    4       -9.665072
    5       -8.472270
    6       -7.825251
    7       -7.053571
    8       -6.624934
    9        1.213205
   10        1.342277
   11        2.019626
   12        2.420767
 
  0.3333333E+00  0.2777778E-01  0.0000000E+00  0.4629630E-02
    1      -21.471858
    2      -19.624280
    3      -12.496644
    4       -9.492515
    5       -8.335873
    6       -8.291956
    7       -7.386849
    8       -6.828314
    9        1.413370
   10        1.886234
   11        2.221439
   12        2.626139
 
  0.3750000E+00  0.2777778E-01  0.0000000E+00  0.4629630E-02
    1      -21.305929
    2      -19.917966
    3      -11.965910
    4       -9.298024
    5       -8.784365
    6       -8.184011
    7       -7.709860
    8       -7.036395
    9        1.640152
   10        2.437915
   11        2.449564
   12        2.858886
 
  0.4166667E+00  0.2777778E-01  0.0000000E+00  0.4629630E-02
    1      -21.120936
    2      -20.194591
    3      -11.429957
    4       -9.295837
    5       -9.082095
    6       -8.019298
    7       -8.017881
    8       -7.244873
    9        1.893485
   10        2.703313
   11        2.983638
   12        3.118996
 
  0.4583333E+00  0.2777778E-01  0.0000000E+00  0.4629630E-02
    1      -20.917059
    2      -20.453584
    3      -10.891599
    4       -9.820665
    5       -8.845349
    6       -8.312786
    7       -7.838945
    8       -7.450090
    9        2.173281
   10        2.811755
   11        2.980697
   12        3.406558
 
  0.5000000E+00  0.2777778E-01  0.0000000E+00  0.2314815E-02
    1      -20.694519
    2      -20.694519
    3      -10.353973
    4      -10.353973
    5       -8.588576
    6       -8.588576
    7       -7.648970
    8       -7.648970
    9        2.479425
   10        2.479425
   11        3.272109
   12        3.272109
 
  0.0000000E+00  0.5555556E-01  0.0000000E+00  0.2314815E-02
    1      -22.058376
    2      -17.167038
    3      -15.814137
    4      -10.185215
    5       -9.116220
    6       -6.074238
    7       -5.966776
    8       -5.227246
    9       -1.178446
   10        0.615538
   11        1.415019
   12        1.807342
 
  0.4166667E-01  0.5555556E-01  0.0000000E+00  0.4629630E-02
    1      -22.048532
    2      -17.292002
    3      -15.674324
    4      -10.173529
    5       -9.106583
    6       -6.127125
    7       -5.975989
    8       -5.287869
    9       -1.102468
   10        0.628866
   11        1.428535
   12        1.821030
 
  0.8333333E-01  0.5555556E-01  0.0000000E+00  0.4629630E-02
    1      -22.019008
    2      -17.575818
    3      -15.346046
    4      -10.138489
    5       -9.077718
    6       -6.265935
    7       -6.020784
    8       -5.457022
    9       -0.887409
   10        0.668859
   11        1.469078
   12        1.862095
 
  0.1250000E+00  0.5555556E-01  0.0000000E+00  0.4629630E-02
    1      -21.969824
    2      -17.914099
    3      -14.933938
    4      -10.080152
    5       -9.029767
    6       -6.474726
    7       -6.109403
    8       -5.705807
    9       -0.562654
   10        0.735535
   11        1.536635
   12        1.930540
 
  0.1666667E+00  0.5555556E-01  0.0000000E+00  0.4629630E-02
    1      -21.901015
    2      -18.264834
    3      -14.480443
    4       -9.998618
    5       -8.962972
    6       -6.746653
    7       -6.237073
    8       -6.004608
    9       -0.158639
   10        0.828916
   11        1.631181
   12        2.026371
 
  0.2083333E+00  0.5555556E-01  0.0000000E+00  0.4629630E-02
    1      -21.812632
    2      -18.612456
    3      -14.001747
    4       -9.894027
    5       -8.877681
    6       -7.075305
    7       -6.396092
    8       -6.330620
    9        0.300656
   10        0.949016
   11        1.752675
   12        2.149589
 
  0.2500000E+00  0.5555556E-01  0.0000000E+00  0.4629630E-02
    1      -21.704740
    2      -18.950275
    3      -13.505358
    4       -9.766571
    5       -8.774360
    6       -7.453456
    7       -6.668219
    8       -6.578539
    9        0.798043
   10        1.095833
   11        1.901058
   12        2.300197
 
  0.2916667E+00  0.5555556E-01  0.0000000E+00  0.4629630E-02
    1      -21.577427
    2      -19.274951
    3      -12.995670
    4       -9.616495
    5       -8.653608
    6       -7.873407
    7       -7.007053
    8       -6.777134
    9        1.269350
   10        1.321149
   11        2.076233
   12        2.478193
 
  0.3333333E+00  0.5555556E-01  0.0000000E+00  0.4629630E-02
    1      -21.430790
    2      -19.584588
    3      -12.475891
    4       -9.444114
    5       -8.516178
    6       -8.327515
    7       -7.340230
    8       -6.985519
    9        1.469536
   10        1.860441
   11        2.278041
   12        2.683574
 
  0.3750000E+00  0.5555556E-01  0.0000000E+00  0.4629630E-02
    1      -21.264957
    2      -19.878003
    3      -11.948818
    4       -9.249821
    5       -8.808600
    6       -8.363000
    7       -7.663065
    8       -7.198300
    9        1.696340
   10        2.407380
   11        2.506180
   12        2.916331
 
  0.4166667E+00  0.5555556E-01  0.0000000E+00  0.4629630E-02
    1      -21.080077
    2      -20.154394
    3      -11.417214
    4       -9.310163
    5       -9.034109
    6       -8.195218
    7       -7.972281
    8       -7.410971
    9        1.949698
   10        2.759979
   11        2.950498
   12        3.176456
 
  0.4583333E+00  0.5555556E-01  0.0000000E+00  0.4629630E-02
    1      -20.876331
    2      -20.413184
    3      -10.884022
    4       -9.826468
    5       -8.797597
    6       -8.265527
    7       -8.014228
    8       -7.619806
    9        2.229525
   10        2.868106
   11        3.037423
   12        3.425695
 
  0.5000000E+00  0.5555556E-01  0.0000000E+00  0.2314815E-02
    1      -20.653943
    2      -20.653943
    3      -10.352527
    4      -10.352527
    5       -8.541068
    6       -8.541068
    7       -7.821733
    8       -7.821733
    9        2.535711
   10        2.535711
   11        3.327791
   12        3.327791
 
  0.0000000E+00  0.8333333E-01  0.0000000E+00  0.2314815E-02
    1      -21.989428
    2      -17.107286
    3      -15.756103
    4      -10.103399
    5       -9.407214
    6       -6.237577
    7       -6.206181
    8       -5.143957
    9       -1.196023
   10        0.709047
   11        1.509482
   12        1.903026
 
  0.4166667E-01  0.8333333E-01  0.0000000E+00  0.4629630E-02
    1      -21.979592
    2      -17.231648
    3      -15.617137
    4      -10.091733
    5       -9.397493
    6       -6.312140
    7       -6.190804
    8       -5.205231
    9       -1.119945
   10        0.722374
   11        1.522993
   12        1.916714
 
  0.8333333E-01  0.8333333E-01  0.0000000E+00  0.4629630E-02
    1      -21.950091
    2      -17.514353
    3      -15.290711
    4      -10.056754
    5       -9.368371
    6       -6.457610
    7       -6.220673
    8       -5.375899
    9       -0.905029
   10        0.762362
   11        1.563524
   12        1.957778
 
  0.1250000E+00  0.8333333E-01  0.0000000E+00  0.4629630E-02
    1      -21.900946
    2      -17.851567
    3      -14.880934
    4       -9.998521
    5       -9.319975
    6       -6.659923
    7       -6.303419
    8       -5.626282
    9       -0.581445
   10        0.829033
   11        1.631061
   12        2.026223
 
  0.1666667E+00  0.8333333E-01  0.0000000E+00  0.4629630E-02
    1      -21.832194
    2      -18.201366
    3      -14.430204
    4       -9.917129
    5       -9.252519
    6       -6.915898
    7       -6.432236
    8       -5.926300
    9       -0.180100
   10        0.922411
   11        1.725579
   12        2.122054
 
  0.2083333E+00  0.8333333E-01  0.0000000E+00  0.4629630E-02
    1      -21.743885
    2      -18.548178
    3      -13.954772
    4       -9.812723
    5       -9.166310
    6       -7.222269
    7       -6.597852
    8       -6.253048
    9        0.274927
   10        1.042511
   11        1.847041
   12        2.245275
 
  0.2500000E+00  0.8333333E-01  0.0000000E+00  0.4629630E-02
    1      -21.636087
    2      -18.885300
    3      -13.462250
    4       -9.685491
    5       -9.061760
    6       -7.575064
    7       -6.790309
    8       -6.590969
    9        0.766536
   10        1.189334
   11        1.995389
   12        2.395888
 
  0.2916667E+00  0.8333333E-01  0.0000000E+00  0.4629630E-02
    1      -21.508886
    2      -19.209371
    3      -12.957157
    4       -9.535680
    5       -8.939400
    6       -7.969345
    7       -7.000341
    8       -6.929821
    9        1.282539
   10        1.362865
   11        2.170534
   12        2.573892
 
  0.3333333E+00  0.8333333E-01  0.0000000E+00  0.4629630E-02
    1      -21.362386
    2      -19.518485
    3      -12.442855
    4       -9.363602
    5       -8.799896
    6       -8.399329
    7       -7.262814
    8       -7.220112
    9        1.563067
   10        1.813687
   11        2.372327
   12        2.779282
 
  0.3750000E+00  0.8333333E-01  0.0000000E+00  0.4629630E-02
    1      -21.196713
    2      -19.811448
    3      -11.922328
    4       -9.169650
    5       -8.858808
    6       -8.644071
    7       -7.585335
    8       -7.443352
    9        1.789891
   10        2.352087
   11        2.600488
   12        3.012053
 
  0.4166667E+00  0.8333333E-01  0.0000000E+00  0.4629630E-02
    1      -21.012020
    2      -20.087447
    3      -11.398564
    4       -9.341612
    5       -8.954312
    6       -8.472942
    7       -7.894164
    8       -7.665162
    9        2.043269
   10        2.854379
   11        2.888793
   12        3.272196
 
  0.4583333E+00  0.8333333E-01  0.0000000E+00  0.4629630E-02
    1      -20.808494
    2      -20.345897
    3      -10.874771
    4       -9.841937
    5       -8.718202
    6       -8.287755
    7       -8.186987
    8       -7.881726
    9        2.323118
   10        2.961772
   11        3.131949
   12        3.393351
 
  0.5000000E+00  0.8333333E-01  0.0000000E+00  0.2314815E-02
    1      -20.586360
    2      -20.586360
    3      -10.354539
    4      -10.354539
    5       -8.462096
    6       -8.462096
    7       -8.090049
    8       -8.090049
    9        2.629332
   10        2.629332
   11        3.419680
   12        3.419680
 
  0.0000000E+00  0.1111111E+00  0.0000000E+00  0.2314815E-02
    1      -21.892984
    2      -17.023661
    3      -15.676004
    4       -9.989106
    5       -9.786057
    6       -6.590467
    7       -6.387751
    8       -5.027505
    9       -1.226300
   10        0.839958
   11        1.641675
   12        2.036986
 
  0.4166667E-01  0.1111111E+00  0.0000000E+00  0.4629630E-02
    1      -21.883159
    2      -17.147226
    3      -15.538207
    4       -9.977470
    5       -9.776186
    6       -6.641181
    7       -6.392377
    8       -5.089774
    9       -1.150037
   10        0.853281
   11        1.655180
   12        2.050673
 
  0.8333333E-01  0.1111111E+00  0.0000000E+00  0.4629630E-02
    1      -21.853691
    2      -17.428425
    3      -15.214411
    4       -9.942581
    5       -9.746606
    6       -6.772445
    7       -6.425482
    8       -5.262740
    9       -0.935255
   10        0.893256
   11        1.695690
   12        2.091736
 
  0.1250000E+00  0.1111111E+00  0.0000000E+00  0.4629630E-02
    1      -21.804602
    2      -17.764162
    3      -14.808034
    4       -9.884497
    5       -9.697413
    6       -6.960853
    7       -6.505578
    8       -5.515515
    9       -0.613339
   10        0.959908
   11        1.763193
   12        2.160178
 
  0.1666667E+00  0.1111111E+00  0.0000000E+00  0.4629630E-02
    1      -21.735929
    2      -18.112652
    3      -14.361404
    4       -9.803315
    5       -9.628771
    6       -7.195860
    7       -6.635283
    8       -5.817326
    9       -0.215898
   10        1.053264
   11        1.857665
   12        2.256007
 
  0.2083333E+00  0.1111111E+00  0.0000000E+00  0.4629630E-02
    1      -21.647724
    2      -18.458325
    3      -13.890880
    4       -9.699177
    5       -9.540916
    6       -7.472597
    7       -6.808989
    8       -6.145135
    9        0.232862
   10        1.173346
   11        1.979072
   12        2.379227
 
  0.2500000E+00  0.1111111E+00  0.0000000E+00  0.4629630E-02
    1      -21.540058
    2      -18.794460
    3      -13.404238
    4       -9.572274
    5       -9.434156
    6       -7.788741
    7       -7.016779
    8       -6.483501
    9        0.715989
   10        1.320156
   11        2.127359
   12        2.529841
 
  0.2916667E+00  0.1111111E+00  0.0000000E+00  0.4629630E-02
    1      -21.413015
    2      -19.117678
    3      -12.906218
    4       -9.422851
    5       -9.308888
    6       -8.142836
    7       -7.247041
    8       -6.822353
    9        1.221546
   10        1.493679
   11        2.302447
   12        2.707850
 
  0.3333333E+00  0.1111111E+00  0.0000000E+00  0.4629630E-02
    1      -21.266706
    2      -19.426054
    3      -12.400454
    4       -9.251220
    5       -9.165601
    6       -8.532895
    7       -7.488755
    8       -7.155047
    9        1.693879
   10        1.740642
   11        2.504204
   12        2.913249
 
  0.3750000E+00  0.1111111E+00  0.0000000E+00  0.4629630E-02
    1      -21.101258
    2      -19.718376
    3      -11.890275
    4       -9.057768
    5       -9.004894
    6       -8.955562
    7       -7.733006
    8       -7.477086
    9        1.920702
   10        2.266024
   11        2.732388
   12        3.146032
 
  0.4166667E+00  0.1111111E+00  0.0000000E+00  0.4629630E-02
    1      -20.916830
    2      -19.993821
    3      -11.379091
    4       -9.406140
    5       -8.842981
    6       -8.827500
    7       -7.973372
    8       -7.785330
    9        2.174076
   10        2.790739
   11        2.986426
   12        3.406190
 
  0.4583333E+00  0.1111111E+00  0.0000000E+00  0.4629630E-02
    1      -20.713613
    2      -20.251792
    3      -10.870630
    4       -9.879170
    5       -8.634324
    6       -8.607466
    7       -8.205508
    8       -8.077521
    9        2.453915
   10        3.092532
   11        3.264243
   12        3.302621
 
  0.5000000E+00  0.1111111E+00  0.0000000E+00  0.2314815E-02
    1      -20.491839
    2      -20.491839
    3      -10.369081
    4      -10.369081
    5       -8.426500
    6       -8.426500
    7       -8.351988
    8       -8.351988
    9        2.760112
   10        2.760112
   11        3.543036
   12        3.543036
 
  0.0000000E+00  0.1388889E+00  0.0000000E+00  0.2314815E-02
    1      -21.769131
    2      -16.916195
    3      -15.575272
    4      -10.231655
    5       -9.842595
    6       -7.006893
    7       -6.615809
    8       -4.878044
    9       -1.274874
   10        1.008263
   11        1.811541
   12        2.209223
 
  0.4166667E-01  0.1388889E+00  0.0000000E+00  0.4629630E-02
    1      -21.759320
    2      -17.038817
    3      -15.438955
    4      -10.221528
    5       -9.830999
    6       -7.053140
    7       -6.620332
    8       -4.941760
    9       -1.198263
   10        1.021577
   11        1.825034
   12        2.222909
 
  0.8333333E-01  0.1388889E+00  0.0000000E+00  0.4629630E-02
    1      -21.729894
    2      -17.318171
    3      -15.118637
    4      -10.191160
    5       -9.796232
    6       -7.177769
    7       -6.646960
    8       -5.118028
    9       -0.983483
   10        1.061528
   11        1.865512
   12        2.263967
 
  0.1250000E+00  0.1388889E+00  0.0000000E+00  0.4629630E-02
    1      -21.680877
    2      -17.652042
    3      -14.716929
    4      -10.140594
    5       -9.738351
    6       -7.358291
    7       -6.714921
    8       -5.374172
    9       -0.663707
   10        1.128142
   11        1.932960
   12        2.332403
 
  0.1666667E+00  0.1388889E+00  0.0000000E+00  0.4629630E-02
    1      -21.612307
    2      -17.998847
    3      -14.276081
    4      -10.069900
    5       -9.657455
    6       -7.579894
    7       -6.833376
    8       -5.678449
    9       -0.271511
   10        1.221451
   11        2.027357
   12        2.428223
 
  0.2083333E+00  0.1388889E+00  0.0000000E+00  0.4629630E-02
    1      -21.524237
    2      -18.343043
    3      -13.812617
    4       -9.979171
    5       -9.553685
    6       -7.834319
    7       -7.002519
    8       -6.007670
    9        0.168764
   10        1.341481
   11        2.148669
   12        2.551437
 
  0.2500000E+00  0.1388889E+00  0.0000000E+00  0.4629630E-02
    1      -21.416739
    2      -18.677895
    3      -13.334596
    4       -9.868513
    5       -9.427231
    6       -8.117466
    7       -7.216306
    8       -6.346587
    9        0.640409
   10        1.488244
   11        2.296848
   12        2.702047
 
  0.2916667E+00  0.1388889E+00  0.0000000E+00  0.4629630E-02
    1      -21.289903
    2      -19.000000
    3      -12.847147
    4       -9.738042
    5       -9.278340
    6       -8.428218
    7       -7.464310
    8       -6.685379
    9        1.131844
   10        1.661725
   11        2.471825
   12        2.880055
 
  0.3333333E+00  0.1388889E+00  0.0000000E+00  0.4629630E-02
    1      -21.143839
    2      -19.307413
    3      -12.354415
    4       -9.587870
    5       -9.107319
    6       -8.767461
    7       -7.733541
    8       -7.017614
    9        1.634600
   10        1.861889
   11        2.673495
   12        3.085457
 
  0.3750000E+00  0.1388889E+00  0.0000000E+00  0.4629630E-02
    1      -20.978683
    2      -19.598901
    3      -11.860390
    4       -9.418094
    5       -9.136657
    6       -8.914555
    7       -8.010653
    8       -7.338951
    9        2.088674
   10        2.142011
   11        2.901670
   12        3.318248
 
  0.4166667E+00  0.1388889E+00  0.0000000E+00  0.4629630E-02
    1      -20.794599
    2      -19.873624
    3      -11.369324
    4       -9.536109
    5       -9.228804
    6       -8.700528
    7       -8.284247
    8       -7.646361
    9        2.342005
   10        2.648361
   11        3.155918
   12        3.578417
 
  0.4583333E+00  0.1388889E+00  0.0000000E+00  0.4629630E-02
    1      -20.591784
    2      -20.130970
    3      -10.885953
    4       -9.963811
    5       -9.020120
    6       -8.546334
    7       -8.465836
    8       -7.937660
    9        2.621786
   10        3.147743
   11        3.260218
   12        3.434260
 
  0.5000000E+00  0.1388889E+00  0.0000000E+00  0.2314815E-02
    1      -20.370477
    2      -20.370477
    3      -10.415567
    4      -10.415567
    5       -8.792344
    6       -8.792344
    7       -8.211229
    8       -8.211229
    9        2.927904
   10        2.927904
   11        3.611211
   12        3.611211
 
  0.0000000E+00  0.1666667E+00  0.0000000E+00  0.2314815E-02
    1      -21.617985
    2      -16.784927
    3      -15.456302
    4      -10.723284
    5       -9.664210
    6       -7.469722
    7       -6.886399
    8       -4.695779
    9       -1.348663
   10        1.213941
   11        2.018994
   12        2.419738
 
  0.4166667E-01  0.1666667E+00  0.0000000E+00  0.4629630E-02
    1      -21.608191
    2      -16.906541
    3      -15.321772
    4      -10.712716
    5       -9.652668
    6       -7.515410
    7       -6.886425
    8       -4.761579
    9       -1.271392
   10        1.227243
   11        2.032470
   12        2.433421
 
  0.8333333E-01  0.1666667E+00  0.0000000E+00  0.4629630E-02
    1      -21.578818
    2      -17.183798
    3      -15.005939
    4      -10.680992
    5       -9.618062
    6       -7.639431
    7       -6.899047
    8       -4.942511
    9       -1.056213
   10        1.267157
   11        2.072893
   12        2.474472
 
  0.1250000E+00  0.1666667E+00  0.0000000E+00  0.4629630E-02
    1      -21.529889
    2      -17.515436
    3      -14.610587
    4      -10.628046
    5       -9.560449
    6       -7.818591
    7       -6.945765
    8       -5.203279
    9       -0.738911
   10        1.333710
   11        2.140251
   12        2.542896
 
  0.1666667E+00  0.1666667E+00  0.0000000E+00  0.4629630E-02
    1      -21.461444
    2      -17.860179
    3      -14.177900
    4      -10.553754
    5       -9.479928
    6       -8.035484
    7       -7.040616
    8       -5.510824
    9       -0.353351
   10        1.426937
   11        2.234519
   12        2.638701
 
  0.2083333E+00  0.1666667E+00  0.0000000E+00  0.4629630E-02
    1      -21.373540
    2      -18.202546
    3      -13.724703
    4      -10.457908
    5       -9.376642
    6       -8.279305
    7       -7.188911
    8       -5.841832
    9        0.076057
   10        1.546874
   11        2.355665
   12        2.761896
 
  0.2500000E+00  0.1666667E+00  0.0000000E+00  0.4629630E-02
    1      -21.266249
    2      -18.535801
    3      -13.259584
    4      -10.340174
    5       -9.250782
    6       -8.543628
    7       -7.389339
    8       -6.181367
    9        0.533014
   10        1.693540
   11        2.503642
   12        2.912490
 
  0.2916667E+00  0.1666667E+00  0.0000000E+00  0.4629630E-02
    1      -21.139666
    2      -18.856520
    3      -12.788433
    4      -10.200043
    5       -9.102593
    6       -8.825146
    7       -7.635563
    8       -6.519970
    9        1.006466
   10        1.866929
   11        2.678386
   12        3.090488
 
  0.3333333E+00  0.1666667E+00  0.0000000E+00  0.4629630E-02
    1      -20.993907
    2      -19.162731
    3      -12.316427
    4      -10.036766
    5       -9.123192
    6       -8.932383
    7       -7.917395
    8       -6.851503
    9        1.488487
   10        2.067007
   11        2.879815
   12        3.295886
 
  0.3750000E+00  0.1666667E+00  0.0000000E+00  0.4629630E-02
    1      -20.829112
    2      -19.453180
    3      -11.848889
    4       -9.849316
    5       -9.439481
    6       -8.740535
    7       -8.221869
    8       -7.171834
    9        1.973010
   10        2.293709
   11        3.107814
   12        3.528678
 
  0.4166667E+00  0.1666667E+00  0.0000000E+00  0.4629630E-02
    1      -20.645454
    2      -19.727003
    3      -11.391648
    4       -9.777524
    5       -9.636452
    6       -8.534545
    7       -8.527522
    8       -7.478079
    9        2.455093
   10        2.546948
   11        3.362195
   12        3.788852
 
  0.4583333E+00  0.1666667E+00  0.0000000E+00  0.4629630E-02
    1      -20.443137
    2      -19.983573
    3      -10.950944
    4      -10.141212
    5       -9.397083
    6       -8.841399
    7       -8.293932
    8       -7.768153
    9        2.826616
   10        2.930478
   11        3.464702
   12        3.641912
 
  0.5000000E+00  0.1666667E+00  0.0000000E+00  0.2314815E-02
    1      -20.222409
    2      -20.222409
    3      -10.532720
    4      -10.532720
    5       -9.131189
    6       -9.131189
    7       -8.040500
    8       -8.040500
    9        3.132585
   10        3.132585
   11        3.395198
   12        3.395198
 