<?xml version="1.0" encoding="ISO-8859-1"?>
<modeling>
 <generator>
  <i name="program" type="string">vasp </i>
  <i name="version" type="string">5.3.5  </i>
  <i name="subversion" type="string">31Mar14 (build Mar 02 2015 18:14:16) complex                          parallel </i>
  <i name="platform" type="string">LinuxIFC </i>
  <i name="date" type="string">2018 08 09 </i>
  <i name="time" type="string">15:10:36 </i>
 </generator>
 <incar>
  <i type="string" name="SYSTEM">  gr</i>
  <i type="string" name="PREC">accurate : accuracy</i>
  <i type="string" name="ALGO"> FAST.</i>
  <i type="int" name="NELM">   100</i>
  <i type="int" name="NELMDL">    -3</i>
  <i type="int" name="NELMIN">     5</i>
  <i type="int" name="IBRION">     1</i>
  <i name="EDIFF">      0.00000000</i>
  <i name="EDIFFG">     -0.00000100</i>
  <i type="int" name="NSW">   400</i>
  <i type="int" name="ISIF">     2</i>
  <i name="ENCUT">   2000.00000000</i>
  <i type="int" name="ISMEAR">     0</i>
  <i name="SIGMA">      0.05000000</i>
  <i type="int" name="NWRITE">     2</i>
  <i type="logical" name="LWAVE"> F  </i>
  <i type="logical" name="LCHARG"> F  </i>
  <i type="int" name="NELM">   100</i>
 </incar>
 <kpoints>
  <generation param="Gamma">
   <v type="int" name="divisions">      24       36        1 </v>
   <v name="usershift">      0.00000000       0.00000000       0.00000000 </v>
   <v name="genvec1">      0.04166667       0.00000000       0.00000000 </v>
   <v name="genvec2">      0.00000000       0.02777778       0.00000000 </v>
   <v name="genvec3">      0.00000000       0.00000000       1.00000000 </v>
   <v name="shift">      0.00000000       0.00000000       0.00000000 </v>
  </generation>
  <varray name="kpointlist" >
   <v>       0.00000000       0.00000000       0.00000000 </v>
   <v>       0.04166667       0.00000000       0.00000000 </v>
   <v>       0.08333333       0.00000000       0.00000000 </v>
   <v>       0.12500000       0.00000000       0.00000000 </v>
   <v>       0.16666667       0.00000000       0.00000000 </v>
   <v>       0.20833333       0.00000000       0.00000000 </v>
   <v>       0.25000000       0.00000000       0.00000000 </v>
   <v>       0.29166667       0.00000000       0.00000000 </v>
   <v>       0.33333333       0.00000000       0.00000000 </v>
   <v>       0.37500000       0.00000000       0.00000000 </v>
   <v>       0.41666667       0.00000000       0.00000000 </v>
   <v>       0.45833333       0.00000000       0.00000000 </v>
   <v>       0.50000000       0.00000000       0.00000000 </v>
   <v>       0.00000000       0.02777778       0.00000000 </v>
   <v>       0.04166667       0.02777778       0.00000000 </v>
   <v>       0.08333333       0.02777778       0.00000000 </v>
   <v>       0.12500000       0.02777778       0.00000000 </v>
   <v>       0.16666667       0.02777778       0.00000000 </v>
   <v>       0.20833333       0.02777778       0.00000000 </v>
   <v>       0.25000000       0.02777778       0.00000000 </v>
   <v>       0.29166667       0.02777778       0.00000000 </v>
   <v>       0.33333333       0.02777778       0.00000000 </v>
   <v>       0.37500000       0.02777778       0.00000000 </v>
   <v>       0.41666667       0.02777778       0.00000000 </v>
   <v>       0.45833333       0.02777778       0.00000000 </v>
   <v>       0.50000000       0.02777778       0.00000000 </v>
   <v>       0.00000000       0.05555556       0.00000000 </v>
   <v>       0.04166667       0.05555556       0.00000000 </v>
   <v>       0.08333333       0.05555556       0.00000000 </v>
   <v>       0.12500000       0.05555556       0.00000000 </v>
   <v>       0.16666667       0.05555556       0.00000000 </v>
   <v>       0.20833333       0.05555556       0.00000000 </v>
   <v>       0.25000000       0.05555556       0.00000000 </v>
   <v>       0.29166667       0.05555556       0.00000000 </v>
   <v>       0.33333333       0.05555556       0.00000000 </v>
   <v>       0.37500000       0.05555556       0.00000000 </v>
   <v>       0.41666667       0.05555556       0.00000000 </v>
   <v>       0.45833333       0.05555556       0.00000000 </v>
   <v>       0.50000000       0.05555556       0.00000000 </v>
   <v>       0.00000000       0.08333333       0.00000000 </v>
   <v>       0.04166667       0.08333333       0.00000000 </v>
   <v>       0.08333333       0.08333333       0.00000000 </v>
   <v>       0.12500000       0.08333333       0.00000000 </v>
   <v>       0.16666667       0.08333333       0.00000000 </v>
   <v>       0.20833333       0.08333333       0.00000000 </v>
   <v>       0.25000000       0.08333333       0.00000000 </v>
   <v>       0.29166667       0.08333333       0.00000000 </v>
   <v>       0.33333333       0.08333333       0.00000000 </v>
   <v>       0.37500000       0.08333333       0.00000000 </v>
   <v>       0.41666667       0.08333333       0.00000000 </v>
   <v>       0.45833333       0.08333333       0.00000000 </v>
   <v>       0.50000000       0.08333333       0.00000000 </v>
   <v>       0.00000000       0.11111111       0.00000000 </v>
   <v>       0.04166667       0.11111111       0.00000000 </v>
   <v>       0.08333333       0.11111111       0.00000000 </v>
   <v>       0.12500000       0.11111111       0.00000000 </v>
   <v>       0.16666667       0.11111111       0.00000000 </v>
   <v>       0.20833333       0.11111111       0.00000000 </v>
   <v>       0.25000000       0.11111111       0.00000000 </v>
   <v>       0.29166667       0.11111111       0.00000000 </v>
   <v>       0.33333333       0.11111111       0.00000000 </v>
   <v>       0.37500000       0.11111111       0.00000000 </v>
   <v>       0.41666667       0.11111111       0.00000000 </v>
   <v>       0.45833333       0.11111111       0.00000000 </v>
   <v>       0.50000000       0.11111111       0.00000000 </v>
   <v>       0.00000000       0.13888889       0.00000000 </v>
   <v>       0.04166667       0.13888889       0.00000000 </v>
   <v>       0.08333333       0.13888889       0.00000000 </v>
   <v>       0.12500000       0.13888889       0.00000000 </v>
   <v>       0.16666667       0.13888889       0.00000000 </v>
   <v>       0.20833333       0.13888889       0.00000000 </v>
   <v>       0.25000000       0.13888889       0.00000000 </v>
   <v>       0.29166667       0.13888889       0.00000000 </v>
   <v>       0.33333333       0.13888889       0.00000000 </v>
   <v>       0.37500000       0.13888889       0.00000000 </v>
   <v>       0.41666667       0.13888889       0.00000000 </v>
   <v>       0.45833333       0.13888889       0.00000000 </v>
   <v>       0.50000000       0.13888889       0.00000000 </v>
   <v>       0.00000000       0.16666667       0.00000000 </v>
   <v>       0.04166667       0.16666667       0.00000000 </v>
   <v>       0.08333333       0.16666667       0.00000000 </v>
   <v>       0.12500000       0.16666667       0.00000000 </v>
   <v>       0.16666667       0.16666667       0.00000000 </v>
   <v>       0.20833333       0.16666667       0.00000000 </v>
   <v>       0.25000000       0.16666667       0.00000000 </v>
   <v>       0.29166667       0.16666667       0.00000000 </v>
   <v>       0.33333333       0.16666667       0.00000000 </v>
   <v>       0.37500000       0.16666667       0.00000000 </v>
   <v>       0.41666667       0.16666667       0.00000000 </v>
   <v>       0.45833333       0.16666667       0.00000000 </v>
   <v>       0.50000000       0.16666667       0.00000000 </v>
   <v>       0.00000000       0.19444444       0.00000000 </v>
   <v>       0.04166667       0.19444444       0.00000000 </v>
   <v>       0.08333333       0.19444444       0.00000000 </v>
   <v>       0.12500000       0.19444444       0.00000000 </v>
   <v>       0.16666667       0.19444444       0.00000000 </v>
   <v>       0.20833333       0.19444444       0.00000000 </v>
   <v>       0.25000000       0.19444444       0.00000000 </v>
   <v>       0.29166667       0.19444444       0.00000000 </v>
   <v>       0.33333333       0.19444444       0.00000000 </v>
   <v>       0.37500000       0.19444444       0.00000000 </v>
   <v>       0.41666667       0.19444444       0.00000000 </v>
   <v>       0.45833333       0.19444444       0.00000000 </v>
   <v>       0.50000000       0.19444444       0.00000000 </v>
   <v>       0.00000000       0.22222222       0.00000000 </v>
   <v>       0.04166667       0.22222222       0.00000000 </v>
   <v>       0.08333333       0.22222222       0.00000000 </v>
   <v>       0.12500000       0.22222222       0.00000000 </v>
   <v>       0.16666667       0.22222222       0.00000000 </v>
   <v>       0.20833333       0.22222222       0.00000000 </v>
   <v>       0.25000000       0.22222222       0.00000000 </v>
   <v>       0.29166667       0.22222222       0.00000000 </v>
   <v>       0.33333333       0.22222222       0.00000000 </v>
   <v>       0.37500000       0.22222222       0.00000000 </v>
   <v>       0.41666667       0.22222222       0.00000000 </v>
   <v>       0.45833333       0.22222222       0.00000000 </v>
   <v>       0.50000000       0.22222222       0.00000000 </v>
   <v>       0.00000000       0.25000000       0.00000000 </v>
   <v>       0.04166667       0.25000000       0.00000000 </v>
   <v>       0.08333333       0.25000000       0.00000000 </v>
   <v>       0.12500000       0.25000000       0.00000000 </v>
   <v>       0.16666667       0.25000000       0.00000000 </v>
   <v>       0.20833333       0.25000000       0.00000000 </v>
   <v>       0.25000000       0.25000000       0.00000000 </v>
   <v>       0.29166667       0.25000000       0.00000000 </v>
   <v>       0.33333333       0.25000000       0.00000000 </v>
   <v>       0.37500000       0.25000000       0.00000000 </v>
   <v>       0.41666667       0.25000000       0.00000000 </v>
   <v>       0.45833333       0.25000000       0.00000000 </v>
   <v>       0.50000000       0.25000000       0.00000000 </v>
   <v>       0.00000000       0.27777778       0.00000000 </v>
   <v>       0.04166667       0.27777778       0.00000000 </v>
   <v>       0.08333333       0.27777778       0.00000000 </v>
   <v>       0.12500000       0.27777778       0.00000000 </v>
   <v>       0.16666667       0.27777778       0.00000000 </v>
   <v>       0.20833333       0.27777778       0.00000000 </v>
   <v>       0.25000000       0.27777778       0.00000000 </v>
   <v>       0.29166667       0.27777778       0.00000000 </v>
   <v>       0.33333333       0.27777778       0.00000000 </v>
   <v>       0.37500000       0.27777778       0.00000000 </v>
   <v>       0.41666667       0.27777778       0.00000000 </v>
   <v>       0.45833333       0.27777778       0.00000000 </v>
   <v>       0.50000000       0.27777778       0.00000000 </v>
   <v>       0.00000000       0.30555556       0.00000000 </v>
   <v>       0.04166667       0.30555556       0.00000000 </v>
   <v>       0.08333333       0.30555556       0.00000000 </v>
   <v>       0.12500000       0.30555556       0.00000000 </v>
   <v>       0.16666667       0.30555556       0.00000000 </v>
   <v>       0.20833333       0.30555556       0.00000000 </v>
   <v>       0.25000000       0.30555556       0.00000000 </v>
   <v>       0.29166667       0.30555556       0.00000000 </v>
   <v>       0.33333333       0.30555556       0.00000000 </v>
   <v>       0.37500000       0.30555556       0.00000000 </v>
   <v>       0.41666667       0.30555556       0.00000000 </v>
   <v>       0.45833333       0.30555556       0.00000000 </v>
   <v>       0.50000000       0.30555556       0.00000000 </v>
   <v>       0.00000000       0.33333333       0.00000000 </v>
   <v>       0.04166667       0.33333333       0.00000000 </v>
   <v>       0.08333333       0.33333333       0.00000000 </v>
   <v>       0.12500000       0.33333333       0.00000000 </v>
   <v>       0.16666667       0.33333333       0.00000000 </v>
   <v>       0.20833333       0.33333333       0.00000000 </v>
   <v>       0.25000000       0.33333333       0.00000000 </v>
   <v>       0.29166667       0.33333333       0.00000000 </v>
   <v>       0.33333333       0.33333333       0.00000000 </v>
   <v>       0.37500000       0.33333333       0.00000000 </v>
   <v>       0.41666667       0.33333333       0.00000000 </v>
   <v>       0.45833333       0.33333333       0.00000000 </v>
   <v>       0.50000000       0.33333333       0.00000000 </v>
   <v>       0.00000000       0.36111111       0.00000000 </v>
   <v>       0.04166667       0.36111111       0.00000000 </v>
   <v>       0.08333333       0.36111111       0.00000000 </v>
   <v>       0.12500000       0.36111111       0.00000000 </v>
   <v>       0.16666667       0.36111111       0.00000000 </v>
   <v>       0.20833333       0.36111111       0.00000000 </v>
   <v>       0.25000000       0.36111111       0.00000000 </v>
   <v>       0.29166667       0.36111111       0.00000000 </v>
   <v>       0.33333333       0.36111111       0.00000000 </v>
   <v>       0.37500000       0.36111111       0.00000000 </v>
   <v>       0.41666667       0.36111111       0.00000000 </v>
   <v>       0.45833333       0.36111111       0.00000000 </v>
   <v>       0.50000000       0.36111111       0.00000000 </v>
   <v>       0.00000000       0.38888889       0.00000000 </v>
   <v>       0.04166667       0.38888889       0.00000000 </v>
   <v>       0.08333333       0.38888889       0.00000000 </v>
   <v>       0.12500000       0.38888889       0.00000000 </v>
   <v>       0.16666667       0.38888889       0.00000000 </v>
   <v>       0.20833333       0.38888889       0.00000000 </v>
   <v>       0.25000000       0.38888889       0.00000000 </v>
   <v>       0.29166667       0.38888889       0.00000000 </v>
   <v>       0.33333333       0.38888889       0.00000000 </v>
   <v>       0.37500000       0.38888889       0.00000000 </v>
   <v>       0.41666667       0.38888889       0.00000000 </v>
   <v>       0.45833333       0.38888889       0.00000000 </v>
   <v>       0.50000000       0.38888889       0.00000000 </v>
   <v>       0.00000000       0.41666667       0.00000000 </v>
   <v>       0.04166667       0.41666667       0.00000000 </v>
   <v>       0.08333333       0.41666667       0.00000000 </v>
   <v>       0.12500000       0.41666667       0.00000000 </v>
   <v>       0.16666667       0.41666667       0.00000000 </v>
   <v>       0.20833333       0.41666667       0.00000000 </v>
   <v>       0.25000000       0.41666667       0.00000000 </v>
   <v>       0.29166667       0.41666667       0.00000000 </v>
   <v>       0.33333333       0.41666667       0.00000000 </v>
   <v>       0.37500000       0.41666667       0.00000000 </v>
   <v>       0.41666667       0.41666667       0.00000000 </v>
   <v>       0.45833333       0.41666667       0.00000000 </v>
   <v>       0.50000000       0.41666667       0.00000000 </v>
   <v>       0.00000000       0.44444444       0.00000000 </v>
   <v>       0.04166667       0.44444444       0.00000000 </v>
   <v>       0.08333333       0.44444444       0.00000000 </v>
   <v>       0.12500000       0.44444444       0.00000000 </v>
   <v>       0.16666667       0.44444444       0.00000000 </v>
   <v>       0.20833333       0.44444444       0.00000000 </v>
   <v>       0.25000000       0.44444444       0.00000000 </v>
   <v>       0.29166667       0.44444444       0.00000000 </v>
   <v>       0.33333333       0.44444444       0.00000000 </v>
   <v>       0.37500000       0.44444444       0.00000000 </v>
   <v>       0.41666667       0.44444444       0.00000000 </v>
   <v>       0.45833333       0.44444444       0.00000000 </v>
   <v>       0.50000000       0.44444444       0.00000000 </v>
   <v>       0.00000000       0.47222222       0.00000000 </v>
   <v>       0.04166667       0.47222222       0.00000000 </v>
   <v>       0.08333333       0.47222222       0.00000000 </v>
   <v>       0.12500000       0.47222222       0.00000000 </v>
   <v>       0.16666667       0.47222222       0.00000000 </v>
   <v>       0.20833333       0.47222222       0.00000000 </v>
   <v>       0.25000000       0.47222222       0.00000000 </v>
   <v>       0.29166667       0.47222222       0.00000000 </v>
   <v>       0.33333333       0.47222222       0.00000000 </v>
   <v>       0.37500000       0.47222222       0.00000000 </v>
   <v>       0.41666667       0.47222222       0.00000000 </v>
   <v>       0.45833333       0.47222222       0.00000000 </v>
   <v>       0.50000000       0.47222222       0.00000000 </v>
   <v>       0.00000000       0.50000000       0.00000000 </v>
   <v>       0.04166667       0.50000000       0.00000000 </v>
   <v>       0.08333333       0.50000000       0.00000000 </v>
   <v>       0.12500000       0.50000000       0.00000000 </v>
   <v>       0.16666667       0.50000000       0.00000000 </v>
   <v>       0.20833333       0.50000000       0.00000000 </v>
   <v>       0.25000000       0.50000000       0.00000000 </v>
   <v>       0.29166667       0.50000000       0.00000000 </v>
   <v>       0.33333333       0.50000000       0.00000000 </v>
   <v>       0.37500000       0.50000000       0.00000000 </v>
   <v>       0.41666667       0.50000000       0.00000000 </v>
   <v>       0.45833333       0.50000000       0.00000000 </v>
   <v>       0.50000000       0.50000000       0.00000000 </v>
  </varray>
  <varray name="weights" >
   <v>       0.00115741 </v>
   <v>       0.00231481 </v>
   <v>       0.00231481 </v>
   <v>       0.00231481 </v>
   <v>       0.00231481 </v>
   <v>       0.00231481 </v>
   <v>       0.00231481 </v>
   <v>       0.00231481 </v>
   <v>       0.00231481 </v>
   <v>       0.00231481 </v>
   <v>       0.00231481 </v>
   <v>       0.00231481 </v>
   <v>       0.00115741 </v>
   <v>       0.00231481 </v>
   <v>       0.00462963 </v>
   <v>       0.00462963 </v>
   <v>       0.00462963 </v>
   <v>       0.00462963 </v>
   <v>       0.00462963 </v>
   <v>       0.00462963 </v>
   <v>       0.00462963 </v>
   <v>       0.00462963 </v>
   <v>       0.00462963 </v>
   <v>       0.00462963 </v>
   <v>       0.00462963 </v>
   <v>       0.00231481 </v>
   <v>       0.00231481 </v>
   <v>       0.00462963 </v>
   <v>       0.00462963 </v>
   <v>       0.00462963 </v>
   <v>       0.00462963 </v>
   <v>       0.00462963 </v>
   <v>       0.00462963 </v>
   <v>       0.00462963 </v>
   <v>       0.00462963 </v>
   <v>       0.00462963 </v>
   <v>       0.00462963 </v>
   <v>       0.00462963 </v>
   <v>       0.00231481 </v>
   <v>       0.00231481 </v>
   <v>       0.00462963 </v>
   <v>       0.00462963 </v>
   <v>       0.00462963 </v>
   <v>       0.00462963 </v>
   <v>       0.00462963 </v>
   <v>       0.00462963 </v>
   <v>       0.00462963 </v>
   <v>       0.00462963 </v>
   <v>       0.00462963 </v>
   <v>       0.00462963 </v>
   <v>       0.00462963 </v>
   <v>       0.00231481 </v>
   <v>       0.00231481 </v>
   <v>       0.00462963 </v>
   <v>       0.00462963 </v>
   <v>       0.00462963 </v>
   <v>       0.00462963 </v>
   <v>       0.00462963 </v>
   <v>       0.00462963 </v>
   <v>       0.00462963 </v>
   <v>       0.00462963 </v>
   <v>       0.00462963 </v>
   <v>       0.00462963 </v>
   <v>       0.00462963 </v>
   <v>       0.00231481 </v>
   <v>       0.00231481 </v>
   <v>       0.00462963 </v>
   <v>       0.00462963 </v>
   <v>       0.00462963 </v>
   <v>       0.00462963 </v>
   <v>       0.00462963 </v>
   <v>       0.00462963 </v>
   <v>       0.00462963 </v>
   <v>       0.00462963 </v>
   <v>       0.00462963 </v>
   <v>       0.00462963 </v>
   <v>       0.00462963 </v>
   <v>       0.00231481 </v>
   <v>       0.00231481 </v>
   <v>       0.00462963 </v>
   <v>       0.00462963 </v>
   <v>       0.00462963 </v>
   <v>       0.00462963 </v>
   <v>       0.00462963 </v>
   <v>       0.00462963 </v>
   <v>       0.00462963 </v>
   <v>       0.00462963 </v>
   <v>       0.00462963 </v>
   <v>       0.00462963 </v>
   <v>       0.00462963 </v>
   <v>       0.00231481 </v>
   <v>       0.00231481 </v>
   <v>       0.00462963 </v>
   <v>       0.00462963 </v>
   <v>       0.00462963 </v>
   <v>       0.00462963 </v>
   <v>       0.00462963 </v>
   <v>       0.00462963 </v>
   <v>       0.00462963 </v>
   <v>       0.00462963 </v>
   <v>       0.00462963 </v>
   <v>       0.00462963 </v>
   <v>       0.00462963 </v>
   <v>       0.00231481 </v>
   <v>       0.00231481 </v>
   <v>       0.00462963 </v>
   <v>       0.00462963 </v>
   <v>       0.00462963 </v>
   <v>       0.00462963 </v>
   <v>       0.00462963 </v>
   <v>       0.00462963 </v>
   <v>       0.00462963 </v>
   <v>       0.00462963 </v>
   <v>       0.00462963 </v>
   <v>       0.00462963 </v>
   <v>       0.00462963 </v>
   <v>       0.00231481 </v>
   <v>       0.00231481 </v>
   <v>       0.00462963 </v>
   <v>       0.00462963 </v>
   <v>       0.00462963 </v>
   <v>       0.00462963 </v>
   <v>       0.00462963 </v>
   <v>       0.00462963 </v>
   <v>       0.00462963 </v>
   <v>       0.00462963 </v>
   <v>       0.00462963 </v>
   <v>       0.00462963 </v>
   <v>       0.00462963 </v>
   <v>       0.00231481 </v>
   <v>       0.00231481 </v>
   <v>       0.00462963 </v>
   <v>       0.00462963 </v>
   <v>       0.00462963 </v>
   <v>       0.00462963 </v>
   <v>       0.00462963 </v>
   <v>       0.00462963 </v>
   <v>       0.00462963 </v>
   <v>       0.00462963 </v>
   <v>       0.00462963 </v>
   <v>       0.00462963 </v>
   <v>       0.00462963 </v>
   <v>       0.00231481 </v>
   <v>       0.00231481 </v>
   <v>       0.00462963 </v>
   <v>       0.00462963 </v>
   <v>       0.00462963 </v>
   <v>       0.00462963 </v>
   <v>       0.00462963 </v>
   <v>       0.00462963 </v>
   <v>       0.00462963 </v>
   <v>       0.00462963 </v>
   <v>       0.00462963 </v>
   <v>       0.00462963 </v>
   <v>       0.00462963 </v>
   <v>       0.00231481 </v>
   <v>       0.00231481 </v>
   <v>       0.00462963 </v>
   <v>       0.00462963 </v>
   <v>       0.00462963 </v>
   <v>       0.00462963 </v>
   <v>       0.00462963 </v>
   <v>       0.00462963 </v>
   <v>       0.00462963 </v>
   <v>       0.00462963 </v>
   <v>       0.00462963 </v>
   <v>       0.00462963 </v>
   <v>       0.00462963 </v>
   <v>       0.00231481 </v>
   <v>       0.00231481 </v>
   <v>       0.00462963 </v>
   <v>       0.00462963 </v>
   <v>       0.00462963 </v>
   <v>       0.00462963 </v>
   <v>       0.00462963 </v>
   <v>       0.00462963 </v>
   <v>       0.00462963 </v>
   <v>       0.00462963 </v>
   <v>       0.00462963 </v>
   <v>       0.00462963 </v>
   <v>       0.00462963 </v>
   <v>       0.00231481 </v>
   <v>       0.00231481 </v>
   <v>       0.00462963 </v>
   <v>       0.00462963 </v>
   <v>       0.00462963 </v>
   <v>       0.00462963 </v>
   <v>       0.00462963 </v>
   <v>       0.00462963 </v>
   <v>       0.00462963 </v>
   <v>       0.00462963 </v>
   <v>       0.00462963 </v>
   <v>       0.00462963 </v>
   <v>       0.00462963 </v>
   <v>       0.00231481 </v>
   <v>       0.00231481 </v>
   <v>       0.00462963 </v>
   <v>       0.00462963 </v>
   <v>       0.00462963 </v>
   <v>       0.00462963 </v>
   <v>       0.00462963 </v>
   <v>       0.00462963 </v>
   <v>       0.00462963 </v>
   <v>       0.00462963 </v>
   <v>       0.00462963 </v>
   <v>       0.00462963 </v>
   <v>       0.00462963 </v>
   <v>       0.00231481 </v>
   <v>       0.00231481 </v>
   <v>       0.00462963 </v>
   <v>       0.00462963 </v>
   <v>       0.00462963 </v>
   <v>       0.00462963 </v>
   <v>       0.00462963 </v>
   <v>       0.00462963 </v>
   <v>       0.00462963 </v>
   <v>       0.00462963 </v>
   <v>       0.00462963 </v>
   <v>       0.00462963 </v>
   <v>       0.00462963 </v>
   <v>       0.00231481 </v>
   <v>       0.00231481 </v>
   <v>       0.00462963 </v>
   <v>       0.00462963 </v>
   <v>       0.00462963 </v>
   <v>       0.00462963 </v>
   <v>       0.00462963 </v>
   <v>       0.00462963 </v>
   <v>       0.00462963 </v>
   <v>       0.00462963 </v>
   <v>       0.00462963 </v>
   <v>       0.00462963 </v>
   <v>       0.00462963 </v>
   <v>       0.00231481 </v>
   <v>       0.00115741 </v>
   <v>       0.00231481 </v>
   <v>       0.00231481 </v>
   <v>       0.00231481 </v>
   <v>       0.00231481 </v>
   <v>       0.00231481 </v>
   <v>       0.00231481 </v>
   <v>       0.00231481 </v>
   <v>       0.00231481 </v>
   <v>       0.00231481 </v>
   <v>       0.00231481 </v>
   <v>       0.00231481 </v>
   <v>       0.00115741 </v>
  </varray>
 </kpoints>
 <parameters>
  <separator name="general" >
   <i type="string" name="SYSTEM">gr</i>
   <i type="logical" name="LCOMPAT"> F  </i>
  </separator>
  <separator name="electronic" >
   <i type="string" name="PREC">accura</i>
   <i name="ENMAX">   2000.00000000</i>
   <i name="ENAUG">    644.87300000</i>
   <i name="EDIFF">      0.00000000</i>
   <i type="int" name="IALGO">    68</i>
   <i type="int" name="IWAVPR">    11</i>
   <i type="int" name="NBANDS">    12</i>
   <i name="NELECT">     16.00000000</i>
   <i type="int" name="TURBO">     0</i>
   <i type="int" name="IRESTART">     0</i>
   <i type="int" name="NREBOOT">     0</i>
   <i type="int" name="NMIN">     0</i>
   <i name="EREF">      0.00000000</i>
   <separator name="electronic smearing" >
    <i type="int" name="ISMEAR">     0</i>
    <i name="SIGMA">      0.05000000</i>
    <i name="KSPACING">      0.50000000</i>
    <i type="logical" name="KGAMMA"> T  </i>
   </separator>
   <separator name="electronic projectors" >
    <i type="logical" name="LREAL"> F  </i>
    <v name="ROPT">      0.00000000</v>
    <i type="int" name="LMAXPAW">  -100</i>
    <i type="int" name="LMAXMIX">     2</i>
    <i type="logical" name="NLSPLINE"> F  </i>
   </separator>
   <separator name="electronic startup" >
    <i type="int" name="ISTART">     0</i>
    <i type="int" name="ICHARG">     2</i>
    <i type="int" name="INIWAV">     1</i>
   </separator>
   <separator name="electronic spin" >
    <i type="int" name="ISPIN">     1</i>
    <i type="logical" name="LNONCOLLINEAR"> F  </i>
    <v name="MAGMOM">      1.00000000      1.00000000      1.00000000      1.00000000</v>
    <i name="NUPDOWN">     -1.00000000</i>
    <i type="logical" name="LSORBIT"> F  </i>
    <v name="SAXIS">      0.00000000      0.00000000      1.00000000</v>
    <i type="logical" name="LSPIRAL"> F  </i>
    <v name="QSPIRAL">      0.00000000      0.00000000      0.00000000</v>
    <i type="logical" name="LZEROZ"> F  </i>
   </separator>
   <separator name="electronic exchange-correlation" >
    <i type="logical" name="LASPH"> F  </i>
    <i type="logical" name="LMETAGGA"> F  </i>
   </separator>
   <separator name="electronic convergence" >
    <i type="int" name="NELM">   100</i>
    <i type="int" name="NELMDL">    -3</i>
    <i type="int" name="NELMIN">     5</i>
    <i name="ENINI">   2000.00000000</i>
    <separator name="electronic convergence detail" >
     <i type="logical" name="LDIAG"> T  </i>
     <i type="logical" name="LSUBROT"> F  </i>
     <i name="WEIMIN">      0.00100000</i>
     <i name="EBREAK">      0.00000000</i>
     <i name="DEPER">      0.30000000</i>
     <i type="int" name="NRMM">     4</i>
     <i name="TIME">      0.40000000</i>
    </separator>
   </separator>
   <separator name="electronic mixer" >
    <i name="AMIX">      0.40000000</i>
    <i name="BMIX">      1.00000000</i>
    <i name="AMIN">      0.10000000</i>
    <i name="AMIX_MAG">      1.60000000</i>
    <i name="BMIX_MAG">      1.00000000</i>
    <separator name="electronic mixer details" >
     <i type="int" name="IMIX">     4</i>
     <i type="int" name="MAXMIX">   -45</i>
     <i name="WC">    100.00000000</i>
     <i type="int" name="INIMIX">     1</i>
     <i type="int" name="MIXPRE">     1</i>
     <i type="int" name="MREMOVE">     5</i>
    </separator>
   </separator>
   <separator name="electronic dipolcorrection" >
    <i type="logical" name="LDIPOL"> F  </i>
    <i type="logical" name="LMONO"> F  </i>
    <i type="int" name="IDIPOL">     0</i>
    <i name="EPSILON">      1.00000000</i>
    <v name="DIPOL">   -100.00000000   -100.00000000   -100.00000000</v>
    <i name="EFIELD">      0.00000000</i>
   </separator>
  </separator>
  <separator name="grids" >
   <i type="int" name="NGX">    64</i>
   <i type="int" name="NGY">    36</i>
   <i type="int" name="NGZ">   288</i>
   <i type="int" name="NGXF">   128</i>
   <i type="int" name="NGYF">    72</i>
   <i type="int" name="NGZF">   576</i>
   <i type="logical" name="ADDGRID"> F  </i>
  </separator>
  <separator name="ionic" >
   <i type="int" name="NSW">   400</i>
   <i type="int" name="IBRION">     1</i>
   <i type="int" name="ISIF">     2</i>
   <i name="PSTRESS">      0.00000000</i>
   <i name="EDIFFG">     -0.00000100</i>
   <i type="int" name="NFREE">     0</i>
   <i name="POTIM">      0.50000000</i>
   <i name="SMASS">     -3.00000000</i>
   <i name="SCALEE">      1.00000000</i>
  </separator>
  <separator name="ionic md" >
   <i name="TEBEG">      0.00010000</i>
   <i name="TEEND">      0.00010000</i>
   <i type="int" name="NBLOCK">     1</i>
   <i type="int" name="KBLOCK">   400</i>
   <i type="int" name="NPACO">   256</i>
   <i name="APACO">     16.00000000</i>
  </separator>
  <separator name="symmetry" >
   <i type="int" name="ISYM">     2</i>
   <i name="SYMPREC">      0.00001000</i>
  </separator>
  <separator name="dos" >
   <i type="logical" name="LORBIT"> F  </i>
   <v name="RWIGS">     -1.00000000</v>
   <i type="int" name="NEDOS">   301</i>
   <i name="EMIN">     10.00000000</i>
   <i name="EMAX">    -10.00000000</i>
   <i name="EFERMI">      0.00000000</i>
  </separator>
  <separator name="writing" >
   <i type="int" name="NWRITE">     2</i>
   <i type="logical" name="LWAVE"> F  </i>
   <i type="logical" name="LCHARG"> F  </i>
   <i type="logical" name="LPARD"> F  </i>
   <i type="logical" name="LVTOT"> F  </i>
   <i type="logical" name="LVHAR"> F  </i>
   <i type="logical" name="LELF"> F  </i>
   <i type="logical" name="LOPTICS"> F  </i>
   <v name="STM">      0.00000000      0.00000000      0.00000000      0.00000000      0.00000000      0.00000000      0.00000000</v>
  </separator>
  <separator name="performance" >
   <i type="int" name="NPAR">     4</i>
   <i type="int" name="NSIM">     4</i>
   <i type="int" name="NBLK">    -1</i>
   <i type="logical" name="LPLANE"> T  </i>
   <i type="logical" name="LSCALAPACK"> F  </i>
   <i type="logical" name="LSCAAWARE"> F  </i>
   <i type="logical" name="LSCALU"> F  </i>
   <i type="logical" name="LASYNC"> F  </i>
   <i type="logical" name="LORBITALREAL"> F  </i>
  </separator>
  <separator name="miscellaneous" >
   <i type="int" name="IDIOT">     3</i>
   <i type="logical" name="LMUSIC"> F  </i>
   <v name="POMASS">     12.01100000</v>
   <v name="DARWINR">      0.00000000</v>
   <v name="DARWINV">      1.00000000</v>
   <i type="logical" name="LCORR"> T  </i>
  </separator>
  <i type="logical" name="GGA_COMPAT"> T  </i>
  <i type="logical" name="LBERRY"> F  </i>
  <i type="int" name="ICORELEVEL">     0</i>
  <i type="logical" name="LDAU"> F  </i>
  <i type="int" name="I_CONSTRAINED_M">     0</i>
  <separator name="electronic exchange-correlation" >
   <i type="string" name="GGA">--</i>
   <i type="int" name="VOSKOWN">     0</i>
   <i type="logical" name="LHFCALC"> F  </i>
   <i type="string" name="PRECFOCK"></i>
   <i type="logical" name="LSYMGRAD"> F  </i>
   <i type="logical" name="LHFONE"> F  </i>
   <i type="logical" name="LRHFCALC"> F  </i>
   <i type="logical" name="LTHOMAS"> F  </i>
   <i type="logical" name="LMODELHF"> F  </i>
   <i name="ENCUT4O">     -1.00000000</i>
   <i type="int" name="EXXOEP">     0</i>
   <i type="int" name="FOURORBIT">     0</i>
   <i name="AEXX">      0.00000000</i>
   <i name="HFALPHA">      0.00000000</i>
   <i name="MCALPHA">      0.00000000</i>
   <i name="ALDAX">      1.00000000</i>
   <i name="AGGAX">      1.00000000</i>
   <i name="ALDAC">      1.00000000</i>
   <i name="AGGAC">      1.00000000</i>
   <i type="int" name="NKREDX">     1</i>
   <i type="int" name="NKREDY">     1</i>
   <i type="int" name="NKREDZ">     1</i>
   <i type="logical" name="SHIFTRED"> F  </i>
   <i type="logical" name="ODDONLY"> F  </i>
   <i type="logical" name="EVENONLY"> F  </i>
   <i type="int" name="LMAXFOCK">     0</i>
   <i type="int" name="NMAXFOCKAE">     0</i>
   <i type="logical" name="LFOCKAEDFT"> F  </i>
   <i name="HFSCREEN">      0.00000000</i>
   <i name="HFSCREENC">      0.00000000</i>
   <i type="int" name="NBANDSGWLOW">     0</i>
  </separator>
  <separator name="vdW DFT" >
   <i type="logical" name="LUSE_VDW"> F  </i>
   <i name="Zab_VDW">     -0.84910000</i>
   <i name="PARAM1">      0.12340000</i>
   <i name="PARAM2">      1.00000000</i>
   <i name="PARAM3">      0.00000000</i>
  </separator>
  <separator name="model GW" >
   <i type="int" name="MODEL_GW">     0</i>
   <i name="MODEL_EPS0">     31.62568521</i>
   <i name="MODEL_ALPHA">      1.00000000</i>
  </separator>
  <separator name="linear response parameters" >
   <i type="logical" name="LEPSILON"> F  </i>
   <i type="logical" name="LRPA"> F  </i>
   <i type="logical" name="LNABLA"> F  </i>
   <i type="logical" name="LVEL"> F  </i>
   <i type="int" name="KINTER">     0</i>
   <i name="CSHIFT">      0.10000000</i>
   <i name="OMEGAMAX">     -1.00000000</i>
   <i name="DEG_THRESHOLD">      0.00200000</i>
  </separator>
  <separator name="orbital magnetization" >
   <i type="logical" name="NUCIND"> F  </i>
   <v name="MAGPOS">      0.00000000      0.00000000      0.00000000</v>
   <i type="logical" name="LNICSALL"> T  </i>
   <i type="logical" name="ORBITALMAG"> F  </i>
   <i type="logical" name="LMAGBLOCH"> F  </i>
   <i type="logical" name="LCHIMAG"> F  </i>
   <i type="logical" name="LGAUGE"> T  </i>
   <i type="int" name="MAGATOM">     0</i>
   <v name="MAGDIPOL">      0.00000000      0.00000000      0.00000000</v>
   <v name="AVECCONST">      0.00000000      0.00000000      0.00000000</v>
  </separator>
  <separator name="response functions" >
   <i type="logical" name="LADDER"> F  </i>
   <i type="logical" name="LFXC"> F  </i>
   <i type="logical" name="LHARTREE"> T  </i>
   <i type="int" name="IBSE">     0</i>
   <i type="logical" name="LTCTE"> F  </i>
   <i type="logical" name="LTETE"> F  </i>
   <i type="logical" name="LTRIPLET"> F  </i>
   <i type="logical" name="LFXCEPS"> F  </i>
   <i type="logical" name="LFXHEG"> F  </i>
   <i type="logical" name="L2ORDER"> F  </i>
   <i type="logical" name="LUSEW"> F  </i>
   <i name="ENCUTGW">     -2.00000000</i>
   <i name="ENCUTGWSOFT">     -2.00000000</i>
   <i name="ENCUTLF">     -1.00000000</i>
   <i type="int" name="LMAXMP2">    -1</i>
   <i name="SCISSOR">      0.00000000</i>
   <i type="int" name="NOMEGA">     0</i>
   <i type="int" name="NOMEGAR">     0</i>
   <i type="int" name="NBANDSGW">    -1</i>
   <i type="int" name="NBANDSO">    -1</i>
   <i type="int" name="NBANDSV">    -1</i>
   <i type="int" name="NELM">   100</i>
   <i type="int" name="DIM">     3</i>
   <i type="int" name="ANTIRES">     0</i>
   <i name="OMEGAMAX">    -30.00000000</i>
   <i name="OMEGAMIN">    -30.00000000</i>
   <i name="OMEGATL">   -200.00000000</i>
   <i type="int" name="OMEGAGRID">     0</i>
   <i name="CSHIFT">     -0.10000000</i>
   <i type="logical" name="SELFENERGY"> F  </i>
   <i type="logical" name="LSPECTRAL"> F  </i>
   <i type="logical" name="ODDONLYGW"> F  </i>
   <i type="logical" name="EVENONLYGW"> F  </i>
   <i type="int" name="NKREDLFX">     1</i>
   <i type="int" name="NKREDLFY">     1</i>
   <i type="int" name="NKREDLFZ">     1</i>
   <i type="int" name="MAXMEM">  1800</i>
   <i type="int" name="TELESCOPE">     0</i>
   <i type="int" name="TAUPAR">     1</i>
  </separator>
  <separator name="External order field" >
   <i name="OFIELD_KAPPA">      0.00000000</i>
   <v name="OFIELD_K">      0.00000000      0.00000000      0.00000000</v>
   <i name="OFIELD_Q6_NEAR">      0.00000000</i>
   <i name="OFIELD_Q6_FAR">      0.00000000</i>
   <i name="OFIELD_A">      0.00000000</i>
  </separator>
 </parameters>
 <atominfo>
  <atoms>       4 </atoms>
  <types>       1 </types>
  <array name="atoms" >
   <dimension dim="1">ion</dimension>
   <field type="string">element</field>
   <field type="int">atomtype</field>
   <set>
    <rc><c>C </c><c>   1</c></rc>
    <rc><c>C </c><c>   1</c></rc>
    <rc><c>C </c><c>   1</c></rc>
    <rc><c>C </c><c>   1</c></rc>
   </set>
  </array>
  <array name="atomtypes" >
   <dimension dim="1">type</dimension>
   <field type="int">atomspertype</field>
   <field type="string">element</field>
   <field>mass</field>
   <field>valence</field>
   <field type="string">pseudopotential</field>
   <set>
    <rc><c>   4</c><c>C </c><c>     12.01100000</c><c>      4.00000000</c><c> PAW_PBE C 08Apr2002                    </c></rc>
   </set>
  </array>
 </atominfo>
 <structure name="initialpos" >
  <crystal>
   <varray name="basis" >
    <v>       4.35979697       0.00000000       0.00000000 </v>
    <v>       0.00000000       2.45888033       0.00000000 </v>
    <v>       0.00000000       0.00000000      19.66731289 </v>
   </varray>
   <i name="volume">    210.83790140 </i>
   <varray name="rec_basis" >
    <v>       0.22936848       0.00000000       0.00000000 </v>
    <v>       0.00000000       0.40668917       0.00000000 </v>
    <v>       0.00000000       0.00000000       0.05084579 </v>
   </varray>
  </crystal>
  <varray name="positions" >
   <v>       0.99954297       0.00000000       0.00000000 </v>
   <v>       0.16712369       0.50000000       0.00000000 </v>
   <v>       0.49954297       0.50000000       0.00000000 </v>
   <v>       0.66712369       0.00000000       0.00000000 </v>
  </varray>
 </structure>
 <calculation>
  <scstep>
   <time name="dav">  301.11  301.20</time>
   <time name="total">  303.78  303.88</time>
   <energy>
    <i name="alphaZ">      6.18334092 </i>
    <i name="ewald">   2475.02931082 </i>
    <i name="hartreedc">  -2903.75696391 </i>
    <i name="XCdc">     54.86998240 </i>
    <i name="pawpsdc">    151.32577238 </i>
    <i name="pawaedc">   -155.92769107 </i>
    <i name="eentropy">     -0.00194972 </i>
    <i name="bandstr">    -27.98079335 </i>
    <i name="atom">    588.62352690 </i>
    <i name="e_fr_energy">    188.36453539 </i>
    <i name="e_wo_entrp">    188.36648510 </i>
    <i name="e_0_energy">    188.36551025 </i>
   </energy>
  </scstep>
  <scstep>
   <time name="dav">  460.04  460.17</time>
   <time name="total">  460.05  460.19</time>
   <energy>
    <i name="e_fr_energy">     -9.58514103 </i>
    <i name="e_wo_entrp">     -9.58466120 </i>
    <i name="e_0_energy">     -9.58490112 </i>
   </energy>
  </scstep>
  <scstep>
   <time name="dav">  351.10  351.45</time>
   <time name="total">  381.08  381.47</time>
   <energy>
    <i name="e_fr_energy">    -38.15922615 </i>
    <i name="e_wo_entrp">    -38.15920948 </i>
    <i name="e_0_energy">    -38.15921782 </i>
   </energy>
  </scstep>
  <scstep>
   <time name="diag">   81.38   81.43</time>
   <time name="diis">  339.76  339.99</time>
   <time name="orth">    3.10    3.10</time>
   <time name="total">  457.61  457.91</time>
   <energy>
    <i name="e_fr_energy">    -37.59139559 </i>
    <i name="e_wo_entrp">    -37.59137670 </i>
    <i name="e_0_energy">    -37.59138615 </i>
   </energy>
  </scstep>
  <scstep>
   <time name="diag">   81.43   81.47</time>
   <time name="diis">  334.48  334.61</time>
   <time name="orth">    3.11    3.11</time>
   <time name="total">  451.69  451.93</time>
   <energy>
    <i name="e_fr_energy">    -36.88666079 </i>
    <i name="e_wo_entrp">    -36.88666034 </i>
    <i name="e_0_energy">    -36.88666056 </i>
   </energy>
  </scstep>
  <scstep>
   <time name="diag">   81.47   81.49</time>
   <time name="diis">  360.24  360.40</time>
   <time name="orth">    3.09    3.09</time>
   <time name="total">  478.40  478.76</time>
   <energy>
    <i name="e_fr_energy">    -36.89236937 </i>
    <i name="e_wo_entrp">    -36.89236896 </i>
    <i name="e_0_energy">    -36.89236916 </i>
   </energy>
  </scstep>
  <scstep>
   <time name="diag">   81.28   81.49</time>
   <time name="diis">  331.30  331.44</time>
   <time name="orth">    3.09    3.09</time>
   <time name="total">  448.77  449.20</time>
   <energy>
    <i name="e_fr_energy">    -36.88313470 </i>
    <i name="e_wo_entrp">    -36.88313437 </i>
    <i name="e_0_energy">    -36.88313453 </i>
   </energy>
  </scstep>
  <scstep>
   <time name="diag">   81.42   81.44</time>
   <time name="diis">  332.98  333.06</time>
   <time name="orth">    3.09    3.09</time>
   <time name="total">  448.96  449.31</time>
   <energy>
    <i name="e_fr_energy">    -36.87822759 </i>
    <i name="e_wo_entrp">    -36.87822725 </i>
    <i name="e_0_energy">    -36.87822742 </i>
   </energy>
  </scstep>
  <scstep>
   <time name="diag">   81.34   81.36</time>
   <time name="diis">  329.44  329.51</time>
   <time name="orth">    3.08    3.08</time>
   <time name="total">  447.61  447.77</time>
   <energy>
    <i name="e_fr_energy">    -36.87806968 </i>
    <i name="e_wo_entrp">    -36.87806930 </i>
    <i name="e_0_energy">    -36.87806949 </i>
   </energy>
  </scstep>
  <scstep>
   <time name="diag">   81.36   81.41</time>
   <time name="diis">  329.86  329.91</time>
   <time name="orth">    3.11    3.11</time>
   <time name="total">  447.48  447.73</time>
   <energy>
    <i name="e_fr_energy">    -36.87804079 </i>
    <i name="e_wo_entrp">    -36.87804042 </i>
    <i name="e_0_energy">    -36.87804061 </i>
   </energy>
  </scstep>
  <scstep>
   <time name="diag">   81.35   81.39</time>
   <time name="diis">  331.16  331.67</time>
   <time name="orth">    3.10    3.12</time>
   <time name="total">  448.28  449.06</time>
   <energy>
    <i name="e_fr_energy">    -36.88039334 </i>
    <i name="e_wo_entrp">    -36.88039298 </i>
    <i name="e_0_energy">    -36.88039316 </i>
   </energy>
  </scstep>
  <scstep>
   <time name="diag">   81.01   81.39</time>
   <time name="diis">  332.59  332.95</time>
   <time name="orth">    3.11    3.11</time>
   <time name="total">  449.25  450.03</time>
   <energy>
    <i name="e_fr_energy">    -36.88086886 </i>
    <i name="e_wo_entrp">    -36.88086850 </i>
    <i name="e_0_energy">    -36.88086868 </i>
   </energy>
  </scstep>
  <scstep>
   <time name="diag">   81.19   81.37</time>
   <time name="diis">  336.22  336.32</time>
   <time name="orth">    3.11    3.11</time>
   <time name="total">  452.80  453.99</time>
   <energy>
    <i name="e_fr_energy">    -36.88111297 </i>
    <i name="e_wo_entrp">    -36.88111260 </i>
    <i name="e_0_energy">    -36.88111278 </i>
   </energy>
  </scstep>
  <scstep>
   <time name="diag">   81.21   81.29</time>
   <time name="diis">  333.82  334.15</time>
   <time name="orth">    3.10    3.10</time>
   <time name="total">  450.42  450.88</time>
   <energy>
    <i name="e_fr_energy">    -36.88119374 </i>
    <i name="e_wo_entrp">    -36.88119338 </i>
    <i name="e_0_energy">    -36.88119356 </i>
   </energy>
  </scstep>
  <scstep>
   <time name="diag">   81.13   81.31</time>
   <time name="diis">  331.62  332.81</time>
   <time name="orth">    3.10    3.10</time>
   <time name="total">  448.79  450.20</time>
   <energy>
    <i name="e_fr_energy">    -36.88120459 </i>
    <i name="e_wo_entrp">    -36.88120423 </i>
    <i name="e_0_energy">    -36.88120441 </i>
   </energy>
  </scstep>
  <scstep>
   <time name="diag">   81.31   81.33</time>
   <time name="diis">  329.50  329.58</time>
   <time name="orth">    3.08    3.08</time>
   <time name="total">  446.61  446.72</time>
   <energy>
    <i name="e_fr_energy">    -36.88121739 </i>
    <i name="e_wo_entrp">    -36.88121703 </i>
    <i name="e_0_energy">    -36.88121721 </i>
   </energy>
  </scstep>
  <scstep>
   <time name="diag">   81.25   81.26</time>
   <time name="diis">  332.22  332.30</time>
   <time name="orth">    3.08    3.08</time>
   <time name="total">  449.39  449.61</time>
   <energy>
    <i name="e_fr_energy">    -36.88122240 </i>
    <i name="e_wo_entrp">    -36.88122204 </i>
    <i name="e_0_energy">    -36.88122222 </i>
   </energy>
  </scstep>
  <scstep>
   <time name="diag">   81.27   81.29</time>
   <time name="diis">  330.21  330.27</time>
   <time name="orth">    3.10    3.10</time>
   <time name="total">  446.98  447.58</time>
   <energy>
    <i name="e_fr_energy">    -36.88122342 </i>
    <i name="e_wo_entrp">    -36.88122306 </i>
    <i name="e_0_energy">    -36.88122324 </i>
   </energy>
  </scstep>
  <scstep>
   <time name="diag">   81.49   81.52</time>
   <time name="diis">  341.27  342.15</time>
   <time name="orth">    3.10    3.10</time>
   <time name="total">  458.56  460.03</time>
   <energy>
    <i name="e_fr_energy">    -36.88122413 </i>
    <i name="e_wo_entrp">    -36.88122377 </i>
    <i name="e_0_energy">    -36.88122395 </i>
   </energy>
  </scstep>
  <scstep>
   <time name="diag">   81.45   81.52</time>
   <time name="diis">  254.89  255.12</time>
   <time name="orth">    3.08    3.09</time>
   <time name="total">  371.57  371.95</time>
   <energy>
    <i name="e_fr_energy">    -36.88122418 </i>
    <i name="e_wo_entrp">    -36.88122381 </i>
    <i name="e_0_energy">    -36.88122400 </i>
   </energy>
  </scstep>
  <scstep>
   <time name="diag">   81.50   81.53</time>
   <time name="diis">  247.98  248.03</time>
   <time name="orth">    3.08    3.08</time>
   <time name="total">  365.55  365.77</time>
   <energy>
    <i name="e_fr_energy">    -36.88122419 </i>
    <i name="e_wo_entrp">    -36.88122383 </i>
    <i name="e_0_energy">    -36.88122401 </i>
   </energy>
  </scstep>
  <scstep>
   <time name="diag">   81.45   81.53</time>
   <time name="diis">  224.80  225.01</time>
   <time name="orth">    3.10    3.10</time>
   <time name="total">  342.11  342.46</time>
   <energy>
    <i name="e_fr_energy">    -36.88122419 </i>
    <i name="e_wo_entrp">    -36.88122383 </i>
    <i name="e_0_energy">    -36.88122401 </i>
   </energy>
  </scstep>
  <scstep>
   <time name="diag">   81.31   81.33</time>
   <time name="diis">  213.62  213.66</time>
   <time name="orth">    3.10    3.10</time>
   <time name="total">  331.22  331.30</time>
   <energy>
    <i name="e_fr_energy">    -36.88122419 </i>
    <i name="e_wo_entrp">    -36.88122383 </i>
    <i name="e_0_energy">    -36.88122401 </i>
   </energy>
  </scstep>
  <scstep>
   <time name="diag">   81.31   81.33</time>
   <time name="diis">  201.83  201.86</time>
   <time name="orth">    3.12    3.12</time>
   <time name="total">  288.84  288.91</time>
   <energy>
    <i name="alphaZ">      6.18334092 </i>
    <i name="ewald">   2475.02931082 </i>
    <i name="hartreedc">  -2969.25166259 </i>
    <i name="XCdc">     57.21348645 </i>
    <i name="pawpsdc">    270.35529849 </i>
    <i name="pawaedc">   -275.47369505 </i>
    <i name="eentropy">     -0.00000036 </i>
    <i name="bandstr">   -189.56082977 </i>
    <i name="atom">    588.62352690 </i>
    <i name="e_fr_energy">    -36.88122419 </i>
    <i name="e_wo_entrp">    -36.88122383 </i>
    <i name="e_0_energy">    -36.88122401 </i>
   </energy>
  </scstep>
  <structure>
   <crystal>
    <varray name="basis" >
     <v>       4.35979697       0.00000000       0.00000000 </v>
     <v>       0.00000000       2.45888033       0.00000000 </v>
     <v>       0.00000000       0.00000000      19.66731289 </v>
    </varray>
    <i name="volume">    210.83790140 </i>
    <varray name="rec_basis" >
     <v>       0.22936848       0.00000000       0.00000000 </v>
     <v>       0.00000000       0.40668917       0.00000000 </v>
     <v>       0.00000000       0.00000000       0.05084579 </v>
    </varray>
   </crystal>
   <varray name="positions" >
    <v>       0.99954297       0.00000000       0.00000000 </v>
    <v>       0.16712369       0.50000000       0.00000000 </v>
    <v>       0.49954297       0.50000000       0.00000000 </v>
    <v>       0.66712369       0.00000000       0.00000000 </v>
   </varray>
  </structure>
  <varray name="forces" >
   <v>      -0.00123090      -0.00000000       0.00000000 </v>
   <v>       0.00123090      -0.00000000      -0.00000000 </v>
   <v>      -0.00123090       0.00000000       0.00000000 </v>
   <v>       0.00123090       0.00000000      -0.00000000 </v>
  </varray>
  <varray name="stress" >
   <v>     -33.50804876       0.00000000       0.00000000 </v>
   <v>       0.00000000       0.00987274       0.00000000 </v>
   <v>       0.00000000       0.00000000      -0.01023652 </v>
  </varray>
  <energy>
   <i name="e_fr_energy">    -36.88122419 </i>
   <i name="e_wo_entrp">    -36.88122401 </i>
   <i name="e_0_energy">     -0.00000036 </i>
  </energy>
  <time name="totalsc">10178.7610189.81</time>
 </calculation>
 <calculation>
  <scstep>
   <time name="dav">  313.62  313.75</time>
   <time name="total">  346.38  346.52</time>
   <energy>
    <i name="alphaZ">      6.18334092 </i>
    <i name="ewald">   2475.02828057 </i>
    <i name="hartreedc">  -2969.25122445 </i>
    <i name="XCdc">     57.21345758 </i>
    <i name="pawpsdc">    270.35530883 </i>
    <i name="pawaedc">   -275.47370555 </i>
    <i name="eentropy">     -0.00000039 </i>
    <i name="bandstr">   -189.56020818 </i>
    <i name="atom">    588.62352690 </i>
    <i name="e_fr_energy">    -36.88122377 </i>
    <i name="e_wo_entrp">    -36.88122338 </i>
    <i name="e_0_energy">    -36.88122358 </i>
   </energy>
  </scstep>
  <scstep>
   <time name="diag">   81.31   81.34</time>
   <time name="diis">  330.27  330.36</time>
   <time name="orth">    3.09    3.09</time>
   <time name="total">  447.18  447.32</time>
   <energy>
    <i name="e_fr_energy">    -36.88122380 </i>
    <i name="e_wo_entrp">    -36.88122340 </i>
    <i name="e_0_energy">    -36.88122360 </i>
   </energy>
  </scstep>
  <scstep>
   <time name="diag">   81.35   81.39</time>
   <time name="diis">  332.28  332.62</time>
   <time name="orth">    3.09    3.09</time>
   <time name="total">  450.11  450.53</time>
   <energy>
    <i name="e_fr_energy">    -36.88122377 </i>
    <i name="e_wo_entrp">    -36.88122338 </i>
    <i name="e_0_energy">    -36.88122358 </i>
   </energy>
  </scstep>
  <scstep>
   <time name="diag">   81.33   81.34</time>
   <time name="diis">  341.28  341.37</time>
   <time name="orth">    3.09    3.09</time>
   <time name="total">  458.31  458.43</time>
   <energy>
    <i name="e_fr_energy">    -36.88122377 </i>
    <i name="e_wo_entrp">    -36.88122338 </i>
    <i name="e_0_energy">    -36.88122358 </i>
   </energy>
  </scstep>
  <scstep>
   <time name="diag">   81.31   81.33</time>
   <time name="diis">  261.54  261.60</time>
   <time name="orth">    3.12    3.12</time>
   <time name="total">  378.79  378.87</time>
   <energy>
    <i name="e_fr_energy">    -36.88122377 </i>
    <i name="e_wo_entrp">    -36.88122338 </i>
    <i name="e_0_energy">    -36.88122358 </i>
   </energy>
  </scstep>
  <scstep>
   <time name="diag">   81.33   81.34</time>
   <time name="diis">  219.81  219.85</time>
   <time name="orth">    3.09    3.09</time>
   <time name="total">  306.80  306.89</time>
   <energy>
    <i name="alphaZ">      6.18334092 </i>
    <i name="ewald">   2475.02828057 </i>
    <i name="hartreedc">  -2969.25084078 </i>
    <i name="XCdc">     57.21344073 </i>
    <i name="pawpsdc">    270.35355185 </i>
    <i name="pawaedc">   -275.47194095 </i>
    <i name="eentropy">     -0.00000039 </i>
    <i name="bandstr">   -189.56058263 </i>
    <i name="atom">    588.62352690 </i>
    <i name="e_fr_energy">    -36.88122377 </i>
    <i name="e_wo_entrp">    -36.88122338 </i>
    <i name="e_0_energy">    -36.88122358 </i>
   </energy>
  </scstep>
  <structure>
   <crystal>
    <varray name="basis" >
     <v>       4.35979697       0.00000000       0.00000000 </v>
     <v>       0.00000000       2.45888033       0.00000000 </v>
     <v>       0.00000000       0.00000000      19.66731289 </v>
    </varray>
    <i name="volume">    210.83790140 </i>
    <varray name="rec_basis" >
     <v>       0.22936848       0.00000000       0.00000000 </v>
     <v>       0.00000000       0.40668917       0.00000000 </v>
     <v>       0.00000000       0.00000000       0.05084579 </v>
    </varray>
   </crystal>
   <varray name="positions" >
    <v>       0.99952935      -0.00000000       0.00000000 </v>
    <v>       0.16713732       0.50000000      -0.00000000 </v>
    <v>       0.49952935       0.50000000       0.00000000 </v>
    <v>       0.66713732       0.00000000      -0.00000000 </v>
   </varray>
  </structure>
  <varray name="forces" >
   <v>       0.00465953      -0.00000000      -0.00000000 </v>
   <v>      -0.00465953       0.00000000       0.00000000 </v>
   <v>       0.00465953      -0.00000000      -0.00000000 </v>
   <v>      -0.00465953       0.00000000       0.00000000 </v>
  </varray>
  <varray name="stress" >
   <v>     -33.49658214       0.00000000       0.00000000 </v>
   <v>       0.00000000      -0.00951714       0.00000000 </v>
   <v>       0.00000000       0.00000000      -0.01031328 </v>
  </varray>
  <energy>
   <i name="e_fr_energy">    -36.88122377 </i>
   <i name="e_wo_entrp">    -36.88122358 </i>
   <i name="e_0_energy">     -0.00000039 </i>
  </energy>
  <time name="totalsc"> 2495.36 2496.43</time>
 </calculation>
 <calculation>
  <scstep>
   <time name="dav">  329.49  329.58</time>
   <time name="total">  362.39  362.49</time>
   <energy>
    <i name="alphaZ">      6.18334092 </i>
    <i name="ewald">   2475.02909513 </i>
    <i name="hartreedc">  -2969.25118090 </i>
    <i name="XCdc">     57.21346357 </i>
    <i name="pawpsdc">    270.35354614 </i>
    <i name="pawaedc">   -275.47193514 </i>
    <i name="eentropy">     -0.00000037 </i>
    <i name="bandstr">   -189.56108046 </i>
    <i name="atom">    588.62352690 </i>
    <i name="e_fr_energy">    -36.88122421 </i>
    <i name="e_wo_entrp">    -36.88122384 </i>
    <i name="e_0_energy">    -36.88122402 </i>
   </energy>
  </scstep>
  <scstep>
   <time name="diag">   81.32   81.34</time>
   <time name="diis">  330.57  330.64</time>
   <time name="orth">    3.18    3.18</time>
   <time name="total">  448.17  448.28</time>
   <energy>
    <i name="e_fr_energy">    -36.88122423 </i>
    <i name="e_wo_entrp">    -36.88122386 </i>
    <i name="e_0_energy">    -36.88122404 </i>
   </energy>
  </scstep>
  <scstep>
   <time name="diag">   81.33   81.38</time>
   <time name="diis">  332.10  332.46</time>
   <time name="orth">    3.10    3.10</time>
   <time name="total">  449.45  449.92</time>
   <energy>
    <i name="e_fr_energy">    -36.88122422 </i>
    <i name="e_wo_entrp">    -36.88122385 </i>
    <i name="e_0_energy">    -36.88122404 </i>
   </energy>
  </scstep>
  <scstep>
   <time name="diag">   81.34   81.37</time>
   <time name="diis">  339.28  339.41</time>
   <time name="orth">    3.09    3.09</time>
   <time name="total">  457.14  457.34</time>
   <energy>
    <i name="e_fr_energy">    -36.88122422 </i>
    <i name="e_wo_entrp">    -36.88122385 </i>
    <i name="e_0_energy">    -36.88122403 </i>
   </energy>
  </scstep>
  <scstep>
   <time name="diag">   81.04   81.32</time>
   <time name="diis">  240.01  241.22</time>
   <time name="orth">    3.09    3.10</time>
   <time name="total">  357.48  359.14</time>
   <energy>
    <i name="e_fr_energy">    -36.88122422 </i>
    <i name="e_wo_entrp">    -36.88122385 </i>
    <i name="e_0_energy">    -36.88122404 </i>
   </energy>
  </scstep>
  <scstep>
   <time name="diag">   80.99   81.39</time>
   <time name="diis">  218.88  220.00</time>
   <time name="orth">    3.08    3.10</time>
   <time name="total">  305.49  307.07</time>
   <energy>
    <i name="alphaZ">      6.18334092 </i>
    <i name="ewald">   2475.02909513 </i>
    <i name="hartreedc">  -2969.25146221 </i>
    <i name="XCdc">     57.21347674 </i>
    <i name="pawpsdc">    270.35493186 </i>
    <i name="pawaedc">   -275.47332696 </i>
    <i name="eentropy">     -0.00000037 </i>
    <i name="bandstr">   -189.56080623 </i>
    <i name="atom">    588.62352690 </i>
    <i name="e_fr_energy">    -36.88122422 </i>
    <i name="e_wo_entrp">    -36.88122385 </i>
    <i name="e_0_energy">    -36.88122404 </i>
   </energy>
  </scstep>
  <structure>
   <crystal>
    <varray name="basis" >
     <v>       4.35979697       0.00000000       0.00000000 </v>
     <v>       0.00000000       2.45888033       0.00000000 </v>
     <v>       0.00000000       0.00000000      19.66731289 </v>
    </varray>
    <i name="volume">    210.83790140 </i>
    <varray name="rec_basis" >
     <v>       0.22936848       0.00000000       0.00000000 </v>
     <v>       0.00000000       0.40668917       0.00000000 </v>
     <v>       0.00000000       0.00000000       0.05084579 </v>
    </varray>
   </crystal>
   <varray name="positions" >
    <v>       0.99954013      -0.00000000       0.00000000 </v>
    <v>       0.16712654       0.50000000      -0.00000000 </v>
    <v>       0.49954013       0.50000000       0.00000000 </v>
    <v>       0.66712654       0.00000000      -0.00000000 </v>
   </varray>
  </structure>
  <varray name="forces" >
   <v>       0.00000941       0.00000000       0.00000000 </v>
   <v>      -0.00000941       0.00000000      -0.00000000 </v>
   <v>       0.00000941       0.00000000       0.00000000 </v>
   <v>      -0.00000941      -0.00000000      -0.00000000 </v>
  </varray>
  <varray name="stress" >
   <v>     -33.50549743       0.00000000       0.00000000 </v>
   <v>       0.00000000       0.00568258       0.00000000 </v>
   <v>       0.00000000       0.00000000      -0.01018837 </v>
  </varray>
  <energy>
   <i name="e_fr_energy">    -36.88122422 </i>
   <i name="e_wo_entrp">    -36.88122404 </i>
   <i name="e_0_energy">     -0.00000037 </i>
  </energy>
  <time name="totalsc"> 2485.19 2489.46</time>
 </calculation>
 <calculation>
  <scstep>
   <time name="dav">  262.39  262.48</time>
   <time name="total">  294.35  294.43</time>
   <energy>
    <i name="alphaZ">      6.18334092 </i>
    <i name="ewald">   2475.02909678 </i>
    <i name="hartreedc">  -2969.25147138 </i>
    <i name="XCdc">     57.21347703 </i>
    <i name="pawpsdc">    270.35493579 </i>
    <i name="pawaedc">   -275.47333097 </i>
    <i name="eentropy">     -0.00000037 </i>
    <i name="bandstr">   -189.56079893 </i>
    <i name="atom">    588.62352690 </i>
    <i name="e_fr_energy">    -36.88122422 </i>
    <i name="e_wo_entrp">    -36.88122385 </i>
    <i name="e_0_energy">    -36.88122404 </i>
   </energy>
  </scstep>
  <scstep>
   <time name="diag">   81.37   81.38</time>
   <time name="diis">  194.57  194.60</time>
   <time name="orth">    3.10    3.10</time>
   <time name="total">  311.95  312.01</time>
   <energy>
    <i name="e_fr_energy">    -36.88122422 </i>
    <i name="e_wo_entrp">    -36.88122385 </i>
    <i name="e_0_energy">    -36.88122404 </i>
   </energy>
  </scstep>
  <scstep>
   <time name="diag">   81.44   81.45</time>
   <time name="diis">  191.20  191.23</time>
   <time name="orth">    3.11    3.11</time>
   <time name="total">  309.93  310.00</time>
   <energy>
    <i name="e_fr_energy">    -36.88122422 </i>
    <i name="e_wo_entrp">    -36.88122385 </i>
    <i name="e_0_energy">    -36.88122404 </i>
   </energy>
  </scstep>
  <scstep>
   <time name="diag">   81.36   81.37</time>
   <time name="diis">  183.45  183.49</time>
   <time name="orth">    3.08    3.08</time>
   <time name="total">  301.17  301.24</time>
   <energy>
    <i name="e_fr_energy">    -36.88122422 </i>
    <i name="e_wo_entrp">    -36.88122385 </i>
    <i name="e_0_energy">    -36.88122404 </i>
   </energy>
  </scstep>
  <scstep>
   <time name="diag">   81.46   81.48</time>
   <time name="diis">  177.15  177.18</time>
   <time name="orth">    3.08    3.08</time>
   <time name="total">  294.00  294.05</time>
   <energy>
    <i name="e_fr_energy">    -36.88122422 </i>
    <i name="e_wo_entrp">    -36.88122385 </i>
    <i name="e_0_energy">    -36.88122404 </i>
   </energy>
  </scstep>
  <scstep>
   <time name="diag">   81.35   81.37</time>
   <time name="diis">  169.91  169.95</time>
   <time name="orth">    3.11    3.11</time>
   <time name="total">  286.53  286.85</time>
   <energy>
    <i name="e_fr_energy">    -36.88122422 </i>
    <i name="e_wo_entrp">    -36.88122385 </i>
    <i name="e_0_energy">    -36.88122404 </i>
   </energy>
  </scstep>
  <scstep>
   <time name="diag">   81.32   81.33</time>
   <time name="diis">  164.40  164.43</time>
   <time name="orth">    3.12    3.12</time>
   <time name="total">  281.49  281.77</time>
   <energy>
    <i name="e_fr_energy">    -36.88122422 </i>
    <i name="e_wo_entrp">    -36.88122385 </i>
    <i name="e_0_energy">    -36.88122404 </i>
   </energy>
  </scstep>
  <scstep>
   <time name="diag">   81.33   81.35</time>
   <time name="diis">  161.34  161.37</time>
   <time name="orth">    3.11    3.11</time>
   <time name="total">  278.47  278.62</time>
   <energy>
    <i name="e_fr_energy">    -36.88122422 </i>
    <i name="e_wo_entrp">    -36.88122385 </i>
    <i name="e_0_energy">    -36.88122404 </i>
   </energy>
  </scstep>
  <scstep>
   <time name="diag">   81.31   81.34</time>
   <time name="diis">  158.80  158.84</time>
   <time name="orth">    3.10    3.10</time>
   <time name="total">  275.61  275.74</time>
   <energy>
    <i name="e_fr_energy">    -36.88122422 </i>
    <i name="e_wo_entrp">    -36.88122385 </i>
    <i name="e_0_energy">    -36.88122404 </i>
   </energy>
  </scstep>
  <scstep>
   <time name="diag">   81.38   81.39</time>
   <time name="diis">  156.40  156.42</time>
   <time name="orth">    3.09    3.09</time>
   <time name="total">  273.34  273.39</time>
   <energy>
    <i name="e_fr_energy">    -36.88122422 </i>
    <i name="e_wo_entrp">    -36.88122385 </i>
    <i name="e_0_energy">    -36.88122404 </i>
   </energy>
  </scstep>
  <scstep>
   <time name="diag">   81.32   81.37</time>
   <time name="diis">  151.90  152.13</time>
   <time name="orth">    3.09    3.09</time>
   <time name="total">  270.02  270.54</time>
   <energy>
    <i name="e_fr_energy">    -36.88122422 </i>
    <i name="e_wo_entrp">    -36.88122385 </i>
    <i name="e_0_energy">    -36.88122404 </i>
   </energy>
  </scstep>
  <scstep>
   <time name="diag">   80.96   81.42</time>
   <time name="diis">  152.25  152.85</time>
   <time name="orth">    3.09    3.09</time>
   <time name="total">  268.37  269.46</time>
   <energy>
    <i name="e_fr_energy">    -36.88122422 </i>
    <i name="e_wo_entrp">    -36.88122385 </i>
    <i name="e_0_energy">    -36.88122404 </i>
   </energy>
  </scstep>
  <scstep>
   <time name="diag">   81.28   81.30</time>
   <time name="diis">  143.62  143.66</time>
   <time name="orth">    3.09    3.09</time>
   <time name="total">  230.57  230.67</time>
   <energy>
    <i name="alphaZ">      6.18334092 </i>
    <i name="ewald">   2475.02909678 </i>
    <i name="hartreedc">  -2969.25149011 </i>
    <i name="XCdc">     57.21347717 </i>
    <i name="pawpsdc">    270.35494055 </i>
    <i name="pawaedc">   -275.47333569 </i>
    <i name="eentropy">     -0.00000037 </i>
    <i name="bandstr">   -189.56078038 </i>
    <i name="atom">    588.62352690 </i>
    <i name="e_fr_energy">    -36.88122422 </i>
    <i name="e_wo_entrp">    -36.88122385 </i>
    <i name="e_0_energy">    -36.88122404 </i>
   </energy>
  </scstep>
  <structure>
   <crystal>
    <varray name="basis" >
     <v>       4.35979697       0.00000000       0.00000000 </v>
     <v>       0.00000000       2.45888033       0.00000000 </v>
     <v>       0.00000000       0.00000000      19.66731289 </v>
    </varray>
    <i name="volume">    210.83790140 </i>
    <varray name="rec_basis" >
     <v>       0.22936848       0.00000000       0.00000000 </v>
     <v>       0.00000000       0.40668917       0.00000000 </v>
     <v>       0.00000000       0.00000000       0.05084579 </v>
    </varray>
   </crystal>
   <varray name="positions" >
    <v>       0.99954015      -0.00000000       0.00000000 </v>
    <v>       0.16712652       0.50000000      -0.00000000 </v>
    <v>       0.49954015       0.50000000       0.00000000 </v>
    <v>       0.66712652      -0.00000000      -0.00000000 </v>
   </varray>
  </structure>
  <varray name="forces" >
   <v>      -0.00001123      -0.00000000       0.00000000 </v>
   <v>       0.00001123      -0.00000000      -0.00000000 </v>
   <v>      -0.00001123       0.00000000       0.00000000 </v>
   <v>       0.00001123      -0.00000000      -0.00000000 </v>
  </varray>
  <varray name="stress" >
   <v>     -33.50565130       0.00000000       0.00000000 </v>
   <v>       0.00000000       0.00584959       0.00000000 </v>
   <v>       0.00000000       0.00000000      -0.01023600 </v>
  </varray>
  <energy>
   <i name="e_fr_energy">    -36.88122422 </i>
   <i name="e_wo_entrp">    -36.88122404 </i>
   <i name="e_0_energy">     -0.00000037 </i>
  </energy>
  <time name="totalsc"> 3779.58 3783.10</time>
 </calculation>
 <calculation>
  <scstep>
   <time name="dav">  264.77  265.12</time>
   <time name="total">  297.54  297.93</time>
   <energy>
    <i name="alphaZ">      6.18334092 </i>
    <i name="ewald">   2475.02909588 </i>
    <i name="hartreedc">  -2969.25148974 </i>
    <i name="XCdc">     57.21347715 </i>
    <i name="pawpsdc">    270.35494054 </i>
    <i name="pawaedc">   -275.47333569 </i>
    <i name="eentropy">     -0.00000037 </i>
    <i name="bandstr">   -189.56077982 </i>
    <i name="atom">    588.62352690 </i>
    <i name="e_fr_energy">    -36.88122422 </i>
    <i name="e_wo_entrp">    -36.88122385 </i>
    <i name="e_0_energy">    -36.88122404 </i>
   </energy>
  </scstep>
  <scstep>
   <time name="diag">   80.94   81.41</time>
   <time name="diis">  143.60  144.26</time>
   <time name="orth">    3.09    3.09</time>
   <time name="total">  260.44  261.73</time>
   <energy>
    <i name="e_fr_energy">    -36.88122422 </i>
    <i name="e_wo_entrp">    -36.88122385 </i>
    <i name="e_0_energy">    -36.88122404 </i>
   </energy>
  </scstep>
  <scstep>
   <time name="diag">   80.87   81.30</time>
   <time name="diis">  147.24  147.78</time>
   <time name="orth">    3.08    3.08</time>
   <time name="total">  263.24  264.25</time>
   <energy>
    <i name="e_fr_energy">    -36.88122422 </i>
    <i name="e_wo_entrp">    -36.88122385 </i>
    <i name="e_0_energy">    -36.88122404 </i>
   </energy>
  </scstep>
  <scstep>
   <time name="diag">   81.25   81.34</time>
   <time name="diis">  146.80  147.14</time>
   <time name="orth">    3.11    3.11</time>
   <time name="total">  263.97  264.41</time>
   <energy>
    <i name="e_fr_energy">    -36.88122422 </i>
    <i name="e_wo_entrp">    -36.88122385 </i>
    <i name="e_0_energy">    -36.88122404 </i>
   </energy>
  </scstep>
  <scstep>
   <time name="diag">   81.37   81.39</time>
   <time name="diis">  141.90  141.92</time>
   <time name="orth">    3.11    3.12</time>
   <time name="total">  228.97  229.04</time>
   <energy>
    <i name="alphaZ">      6.18334092 </i>
    <i name="ewald">   2475.02909588 </i>
    <i name="hartreedc">  -2969.25148823 </i>
    <i name="XCdc">     57.21347709 </i>
    <i name="pawpsdc">    270.35493948 </i>
    <i name="pawaedc">   -275.47333460 </i>
    <i name="eentropy">     -0.00000037 </i>
    <i name="bandstr">   -189.56078129 </i>
    <i name="atom">    588.62352690 </i>
    <i name="e_fr_energy">    -36.88122422 </i>
    <i name="e_wo_entrp">    -36.88122385 </i>
    <i name="e_0_energy">    -36.88122404 </i>
   </energy>
  </scstep>
  <structure>
   <crystal>
    <varray name="basis" >
     <v>       4.35979697       0.00000000       0.00000000 </v>
     <v>       0.00000000       2.45888033       0.00000000 </v>
     <v>       0.00000000       0.00000000      19.66731289 </v>
    </varray>
    <i name="volume">    210.83790140 </i>
    <varray name="rec_basis" >
     <v>       0.22936848       0.00000000       0.00000000 </v>
     <v>       0.00000000       0.40668917       0.00000000 </v>
     <v>       0.00000000       0.00000000       0.05084579 </v>
    </varray>
   </crystal>
   <varray name="positions" >
    <v>       0.99954014      -0.00000000       0.00000000 </v>
    <v>       0.16712653       0.50000000      -0.00000000 </v>
    <v>       0.49954014       0.50000000       0.00000000 </v>
    <v>       0.66712653      -0.00000000      -0.00000000 </v>
   </varray>
  </structure>
  <varray name="forces" >
   <v>      -0.00000143       0.00000000       0.00000000 </v>
   <v>       0.00000143      -0.00000000      -0.00000000 </v>
   <v>      -0.00000143       0.00000000       0.00000000 </v>
   <v>       0.00000143      -0.00000000      -0.00000000 </v>
  </varray>
  <varray name="stress" >
   <v>     -33.50562083       0.00000000       0.00000000 </v>
   <v>       0.00000000       0.00581187       0.00000000 </v>
   <v>       0.00000000       0.00000000      -0.01024378 </v>
  </varray>
  <energy>
   <i name="e_fr_energy">    -36.88122422 </i>
   <i name="e_wo_entrp">    -36.88122404 </i>
   <i name="e_0_energy">     -0.00000037 </i>
  </energy>
  <time name="totalsc"> 1419.50 1422.87</time>
 </calculation>
 <calculation>
  <scstep>
   <time name="dav">  247.05  247.13</time>
   <time name="total">  279.76  279.85</time>
   <energy>
    <i name="alphaZ">      6.18334092 </i>
    <i name="ewald">   2475.02909575 </i>
    <i name="hartreedc">  -2969.25148816 </i>
    <i name="XCdc">     57.21347709 </i>
    <i name="pawpsdc">    270.35493948 </i>
    <i name="pawaedc">   -275.47333461 </i>
    <i name="eentropy">     -0.00000037 </i>
    <i name="bandstr">   -189.56078123 </i>
    <i name="atom">    588.62352690 </i>
    <i name="e_fr_energy">    -36.88122422 </i>
    <i name="e_wo_entrp">    -36.88122385 </i>
    <i name="e_0_energy">    -36.88122404 </i>
   </energy>
  </scstep>
  <scstep>
   <time name="diag">   81.22   81.39</time>
   <time name="diis">  129.96  130.00</time>
   <time name="orth">    3.09    3.09</time>
   <time name="total">  247.14  247.38</time>
   <energy>
    <i name="e_fr_energy">    -36.88122422 </i>
    <i name="e_wo_entrp">    -36.88122385 </i>
    <i name="e_0_energy">    -36.88122404 </i>
   </energy>
  </scstep>
  <scstep>
   <time name="diag">   81.30   81.37</time>
   <time name="diis">  137.37  137.40</time>
   <time name="orth">    3.09    3.09</time>
   <time name="total">  254.70  254.82</time>
   <energy>
    <i name="e_fr_energy">    -36.88122422 </i>
    <i name="e_wo_entrp">    -36.88122385 </i>
    <i name="e_0_energy">    -36.88122404 </i>
   </energy>
  </scstep>
  <scstep>
   <time name="diag">   81.39   81.44</time>
   <time name="diis">  134.60  134.64</time>
   <time name="orth">    3.11    3.11</time>
   <time name="total">  251.83  251.92</time>
   <energy>
    <i name="e_fr_energy">    -36.88122422 </i>
    <i name="e_wo_entrp">    -36.88122385 </i>
    <i name="e_0_energy">    -36.88122404 </i>
   </energy>
  </scstep>
  <scstep>
   <time name="diag">   81.36   81.40</time>
   <time name="diis">  115.31  115.42</time>
   <time name="orth">    3.09    3.09</time>
   <time name="total">  232.45  232.64</time>
   <energy>
    <i name="e_fr_energy">    -36.88122422 </i>
    <i name="e_wo_entrp">    -36.88122385 </i>
    <i name="e_0_energy">    -36.88122404 </i>
   </energy>
  </scstep>
  <scstep>
   <time name="diag">   81.33   81.42</time>
   <time name="diis">  128.80  128.93</time>
   <time name="orth">    3.19    3.19</time>
   <time name="total">  245.54  245.78</time>
   <energy>
    <i name="e_fr_energy">    -36.88122422 </i>
    <i name="e_wo_entrp">    -36.88122385 </i>
    <i name="e_0_energy">    -36.88122404 </i>
   </energy>
  </scstep>
  <scstep>
   <time name="diag">   81.27   81.39</time>
   <time name="diis">  113.49  113.79</time>
   <time name="orth">    3.10    3.11</time>
   <time name="total">  200.40  200.99</time>
   <energy>
    <i name="alphaZ">      6.18334092 </i>
    <i name="ewald">   2475.02909575 </i>
    <i name="hartreedc">  -2969.25148818 </i>
    <i name="XCdc">     57.21347709 </i>
    <i name="pawpsdc">    270.35493949 </i>
    <i name="pawaedc">   -275.47333462 </i>
    <i name="eentropy">     -0.00000037 </i>
    <i name="bandstr">   -189.56078121 </i>
    <i name="atom">    588.62352690 </i>
    <i name="e_fr_energy">    -36.88122422 </i>
    <i name="e_wo_entrp">    -36.88122385 </i>
    <i name="e_0_energy">    -36.88122404 </i>
   </energy>
  </scstep>
  <structure>
   <crystal>
    <varray name="basis" >
     <v>       4.35979697       0.00000000       0.00000000 </v>
     <v>       0.00000000       2.45888033       0.00000000 </v>
     <v>       0.00000000       0.00000000      19.66731289 </v>
    </varray>
    <i name="volume">    210.83790140 </i>
    <varray name="rec_basis" >
     <v>       0.22936848       0.00000000       0.00000000 </v>
     <v>       0.00000000       0.40668917       0.00000000 </v>
     <v>       0.00000000       0.00000000       0.05084579 </v>
    </varray>
   </crystal>
   <varray name="positions" >
    <v>       0.99954013       0.00000000       0.00000000 </v>
    <v>       0.16712653       0.50000000      -0.00000000 </v>
    <v>       0.49954013       0.50000000       0.00000000 </v>
    <v>       0.66712653      -0.00000000      -0.00000000 </v>
   </varray>
  </structure>
  <varray name="forces" >
   <v>      -0.00000112       0.00000000       0.00000000 </v>
   <v>       0.00000112       0.00000000       0.00000000 </v>
   <v>      -0.00000112       0.00000000       0.00000000 </v>
   <v>       0.00000112      -0.00000000       0.00000000 </v>
  </varray>
  <varray name="stress" >
   <v>     -33.50562255       0.00000000       0.00000000 </v>
   <v>       0.00000000       0.00581296       0.00000000 </v>
   <v>       0.00000000       0.00000000      -0.01024025 </v>
  </varray>
  <energy>
   <i name="e_fr_energy">    -36.88122422 </i>
   <i name="e_wo_entrp">    -36.88122404 </i>
   <i name="e_0_energy">     -0.00000037 </i>
  </energy>
  <time name="totalsc"> 1817.11 1818.79</time>
 </calculation>
 <calculation>
  <scstep>
   <time name="dav">  228.93  229.04</time>
   <time name="total">  261.96  262.09</time>
   <energy>
    <i name="alphaZ">      6.18334092 </i>
    <i name="ewald">   2475.02909528 </i>
    <i name="hartreedc">  -2969.25148797 </i>
    <i name="XCdc">     57.21347708 </i>
    <i name="pawpsdc">    270.35493949 </i>
    <i name="pawaedc">   -275.47333462 </i>
    <i name="eentropy">     -0.00000037 </i>
    <i name="bandstr">   -189.56078093 </i>
    <i name="atom">    588.62352690 </i>
    <i name="e_fr_energy">    -36.88122422 </i>
    <i name="e_wo_entrp">    -36.88122385 </i>
    <i name="e_0_energy">    -36.88122403 </i>
   </energy>
  </scstep>
  <scstep>
   <time name="diag">   81.38   81.40</time>
   <time name="diis">  112.98  113.00</time>
   <time name="orth">    3.09    3.09</time>
   <time name="total">  230.24  230.31</time>
   <energy>
    <i name="e_fr_energy">    -36.88122422 </i>
    <i name="e_wo_entrp">    -36.88122385 </i>
    <i name="e_0_energy">    -36.88122404 </i>
   </energy>
  </scstep>
  <scstep>
   <time name="diag">   81.37   81.39</time>
   <time name="diis">  107.54  107.56</time>
   <time name="orth">    3.11    3.11</time>
   <time name="total">  225.01  225.07</time>
   <energy>
    <i name="e_fr_energy">    -36.88122422 </i>
    <i name="e_wo_entrp">    -36.88122385 </i>
    <i name="e_0_energy">    -36.88122404 </i>
   </energy>
  </scstep>
  <scstep>
   <time name="diag">   81.33   81.37</time>
   <time name="diis">  120.12  120.16</time>
   <time name="orth">    3.11    3.11</time>
   <time name="total">  237.29  237.42</time>
   <energy>
    <i name="e_fr_energy">    -36.88122422 </i>
    <i name="e_wo_entrp">    -36.88122385 </i>
    <i name="e_0_energy">    -36.88122404 </i>
   </energy>
  </scstep>
  <scstep>
   <time name="diag">   81.36   81.39</time>
   <time name="diis">  107.69  108.18</time>
   <time name="orth">    3.09    3.11</time>
   <time name="total">  224.87  225.55</time>
   <energy>
    <i name="e_fr_energy">    -36.88122422 </i>
    <i name="e_wo_entrp">    -36.88122385 </i>
    <i name="e_0_energy">    -36.88122404 </i>
   </energy>
  </scstep>
  <scstep>
   <time name="diag">   80.98   81.41</time>
   <time name="diis">  107.39  107.70</time>
   <time name="orth">    3.11    3.11</time>
   <time name="total">  224.06  225.92</time>
   <energy>
    <i name="e_fr_energy">    -36.88122422 </i>
    <i name="e_wo_entrp">    -36.88122385 </i>
    <i name="e_0_energy">    -36.88122404 </i>
   </energy>
  </scstep>
  <scstep>
   <time name="diag">   81.38   81.43</time>
   <time name="diis">  106.86  106.90</time>
   <time name="orth">    3.10    3.10</time>
   <time name="total">  193.94  194.04</time>
   <energy>
    <i name="alphaZ">      6.18334092 </i>
    <i name="ewald">   2475.02909528 </i>
    <i name="hartreedc">  -2969.25148735 </i>
    <i name="XCdc">     57.21347706 </i>
    <i name="pawpsdc">    270.35493842 </i>
    <i name="pawaedc">   -275.47333354 </i>
    <i name="eentropy">     -0.00000037 </i>
    <i name="bandstr">   -189.56078154 </i>
    <i name="atom">    588.62352690 </i>
    <i name="e_fr_energy">    -36.88122422 </i>
    <i name="e_wo_entrp">    -36.88122385 </i>
    <i name="e_0_energy">    -36.88122404 </i>
   </energy>
  </scstep>
  <structure>
   <crystal>
    <varray name="basis" >
     <v>       4.35979697       0.00000000       0.00000000 </v>
     <v>       0.00000000       2.45888033       0.00000000 </v>
     <v>       0.00000000       0.00000000      19.66731289 </v>
    </varray>
    <i name="volume">    210.83790140 </i>
    <varray name="rec_basis" >
     <v>       0.22936848       0.00000000       0.00000000 </v>
     <v>       0.00000000       0.40668917       0.00000000 </v>
     <v>       0.00000000       0.00000000       0.05084579 </v>
    </varray>
   </crystal>
   <varray name="positions" >
    <v>       0.99954013       0.00000000       0.00000000 </v>
    <v>       0.16712654       0.50000000      -0.00000000 </v>
    <v>       0.49954013       0.50000000       0.00000000 </v>
    <v>       0.66712654      -0.00000000      -0.00000000 </v>
   </varray>
  </structure>
  <varray name="forces" >
   <v>       0.00000106       0.00000000       0.00000000 </v>
   <v>      -0.00000106      -0.00000000       0.00000000 </v>
   <v>       0.00000106       0.00000000       0.00000000 </v>
   <v>      -0.00000106      -0.00000000       0.00000000 </v>
  </varray>
  <varray name="stress" >
   <v>     -33.50562082       0.00000000       0.00000000 </v>
   <v>       0.00000000       0.00580755       0.00000000 </v>
   <v>       0.00000000       0.00000000      -0.01024359 </v>
  </varray>
  <energy>
   <i name="e_fr_energy">    -36.88122422 </i>
   <i name="e_wo_entrp">    -36.88122404 </i>
   <i name="e_0_energy">     -0.00000037 </i>
  </energy>
  <time name="totalsc"> 1699.63 1703.68</time>
 </calculation>
 <calculation>
  <scstep>
   <time name="dav">  213.50  213.58</time>
   <time name="total">  246.14  246.23</time>
   <energy>
    <i name="alphaZ">      6.18334092 </i>
    <i name="ewald">   2475.02909551 </i>
    <i name="hartreedc">  -2969.25148743 </i>
    <i name="XCdc">     57.21347706 </i>
    <i name="pawpsdc">    270.35493842 </i>
    <i name="pawaedc">   -275.47333354 </i>
    <i name="eentropy">     -0.00000037 </i>
    <i name="bandstr">   -189.56078169 </i>
    <i name="atom">    588.62352690 </i>
    <i name="e_fr_energy">    -36.88122422 </i>
    <i name="e_wo_entrp">    -36.88122385 </i>
    <i name="e_0_energy">    -36.88122403 </i>
   </energy>
  </scstep>
  <scstep>
   <time name="diag">   81.19   81.43</time>
   <time name="diis">  102.17  102.68</time>
   <time name="orth">    3.09    3.11</time>
   <time name="total">  219.25  220.18</time>
   <energy>
    <i name="e_fr_energy">    -36.88122422 </i>
[...]
       <r>   -9.3305    1.0000 </r>
       <r>   -5.5294    1.0000 </r>
       <r>   -5.5294    1.0000 </r>
       <r>   -0.4782    0.0000 </r>
       <r>   -0.4782    0.0000 </r>
       <r>    4.2697    0.0000 </r>
       <r>    4.2697    0.0000 </r>
      </set>
      <set comment="kpoint 209">
       <r>  -18.6635    1.0000 </r>
       <r>  -16.8517    1.0000 </r>
       <r>  -14.1852    1.0000 </r>
       <r>  -12.5254    1.0000 </r>
       <r>  -12.3232    1.0000 </r>
       <r>  -10.8068    1.0000 </r>
       <r>   -6.3030    1.0000 </r>
       <r>   -4.4233    1.0000 </r>
       <r>   -1.1627    0.0000 </r>
       <r>    0.9984    0.0000 </r>
       <r>    5.3029    0.0000 </r>
       <r>    6.0760    0.0000 </r>
      </set>
      <set comment="kpoint 210">
       <r>  -18.6542    1.0000 </r>
       <r>  -16.8445    1.0000 </r>
       <r>  -14.2553    1.0000 </r>
       <r>  -12.5911    1.0000 </r>
       <r>  -12.2454    1.0000 </r>
       <r>  -10.7436    1.0000 </r>
       <r>   -6.2946    1.0000 </r>
       <r>   -4.4271    1.0000 </r>
       <r>   -1.1696    0.0000 </r>
       <r>    0.9753    0.0000 </r>
       <r>    5.3159    0.0000 </r>
       <r>    6.0913    0.0000 </r>
      </set>
      <set comment="kpoint 211">
       <r>  -18.6263    1.0000 </r>
       <r>  -16.8230    1.0000 </r>
       <r>  -14.4367    1.0000 </r>
       <r>  -12.7636    1.0000 </r>
       <r>  -12.0409    1.0000 </r>
       <r>  -10.5791    1.0000 </r>
       <r>   -6.2695    1.0000 </r>
       <r>   -4.4390    1.0000 </r>
       <r>   -1.1889    0.0000 </r>
       <r>    0.9074    0.0000 </r>
       <r>    5.3549    0.0000 </r>
       <r>    6.1369    0.0000 </r>
      </set>
      <set comment="kpoint 212">
       <r>  -18.5799    1.0000 </r>
       <r>  -16.7888    1.0000 </r>
       <r>  -14.6779    1.0000 </r>
       <r>  -12.9988    1.0000 </r>
       <r>  -11.7614    1.0000 </r>
       <r>  -10.3596    1.0000 </r>
       <r>   -6.2279    1.0000 </r>
       <r>   -4.4603    1.0000 </r>
       <r>   -1.2162    0.0000 </r>
       <r>    0.7993    0.0000 </r>
       <r>    5.4190    0.0000 </r>
       <r>    6.2118    0.0000 </r>
      </set>
      <set comment="kpoint 213">
       <r>  -18.5151    1.0000 </r>
       <r>  -16.7446    1.0000 </r>
       <r>  -14.9407    1.0000 </r>
       <r>  -13.2645    1.0000 </r>
       <r>  -11.4440    1.0000 </r>
       <r>  -10.1202    1.0000 </r>
       <r>   -6.1704    1.0000 </r>
       <r>   -4.4929    1.0000 </r>
       <r>   -1.2450    0.0000 </r>
       <r>    0.6575    0.0000 </r>
       <r>    5.5043    0.0000 </r>
       <r>    6.0185    0.0000 </r>
      </set>
      <set comment="kpoint 214">
       <r>  -18.4321    1.0000 </r>
       <r>  -16.6962    1.0000 </r>
       <r>  -15.2003    1.0000 </r>
       <r>  -13.5424    1.0000 </r>
       <r>  -11.1112    1.0000 </r>
       <r>   -9.8837    1.0000 </r>
       <r>   -6.0977    1.0000 </r>
       <r>   -4.5392    1.0000 </r>
       <r>   -1.2678    0.0000 </r>
       <r>    0.4896    0.0000 </r>
       <r>    5.4761    0.0000 </r>
       <r>    5.6778    0.0000 </r>
      </set>
      <set comment="kpoint 215">
       <r>  -18.3312    1.0000 </r>
       <r>  -16.6556    1.0000 </r>
       <r>  -15.4344    1.0000 </r>
       <r>  -13.8223    1.0000 </r>
       <r>  -10.7773    1.0000 </r>
       <r>   -9.6659    1.0000 </r>
       <r>   -6.0105    1.0000 </r>
       <r>   -4.6010    1.0000 </r>
       <r>   -1.2770    0.0000 </r>
       <r>    0.3035    0.0000 </r>
       <r>    5.0759    0.0000 </r>
       <r>    5.7910    0.0000 </r>
      </set>
      <set comment="kpoint 216">
       <r>  -18.2128    1.0000 </r>
       <r>  -16.6456    1.0000 </r>
       <r>  -15.6144    1.0000 </r>
       <r>  -14.0976    1.0000 </r>
       <r>  -10.4534    1.0000 </r>
       <r>   -9.4792    1.0000 </r>
       <r>   -5.9100    1.0000 </r>
       <r>   -4.6794    1.0000 </r>
       <r>   -1.2663    0.0000 </r>
       <r>    0.1067    0.0000 </r>
       <r>    4.7135    0.0000 </r>
       <r>    5.6781    0.0000 </r>
      </set>
      <set comment="kpoint 217">
       <r>  -18.0774    1.0000 </r>
       <r>  -16.6975    1.0000 </r>
       <r>  -15.7054    1.0000 </r>
       <r>  -14.3643    1.0000 </r>
       <r>  -10.1490    1.0000 </r>
       <r>   -9.3339    1.0000 </r>
       <r>   -5.7978    1.0000 </r>
       <r>   -4.7743    1.0000 </r>
       <r>   -1.2309    0.0000 </r>
       <r>   -0.0939    0.0000 </r>
       <r>    4.4234    0.0000 </r>
       <r>    5.2346    0.0000 </r>
      </set>
      <set comment="kpoint 218">
       <r>  -17.9257    1.0000 </r>
       <r>  -16.8224    1.0000 </r>
       <r>  -15.6943    1.0000 </r>
       <r>  -14.6191    1.0000 </r>
       <r>   -9.8732    1.0000 </r>
       <r>   -9.2386    1.0000 </r>
       <r>   -5.6756    1.0000 </r>
       <r>   -4.8841    1.0000 </r>
       <r>   -1.1685    0.0000 </r>
       <r>   -0.2923    0.0000 </r>
       <r>    4.2155    0.0000 </r>
       <r>    4.8495    0.0000 </r>
      </set>
      <set comment="kpoint 219">
       <r>  -17.7589    1.0000 </r>
       <r>  -16.9963    1.0000 </r>
       <r>  -15.6037    1.0000 </r>
       <r>  -14.8594    1.0000 </r>
       <r>   -9.6349    1.0000 </r>
       <r>   -9.1997    1.0000 </r>
       <r>   -5.5456    1.0000 </r>
       <r>   -5.0062    1.0000 </r>
       <r>   -1.0785    0.0000 </r>
       <r>   -0.4829    0.0000 </r>
       <r>    4.0964    0.0000 </r>
       <r>    4.5322    0.0000 </r>
      </set>
      <set comment="kpoint 220">
       <r>  -17.5786    1.0000 </r>
       <r>  -17.1905    1.0000 </r>
       <r>  -15.4616    1.0000 </r>
       <r>  -15.0825    1.0000 </r>
       <r>   -9.4422    1.0000 </r>
       <r>   -9.2208    1.0000 </r>
       <r>   -5.4105    1.0000 </r>
       <r>   -5.1372    1.0000 </r>
       <r>   -0.9622    0.0000 </r>
       <r>   -0.6609    0.0000 </r>
       <r>    4.0696    0.0000 </r>
       <r>    4.2917    0.0000 </r>
      </set>
      <set comment="kpoint 221">
       <r>  -17.3876    1.0000 </r>
       <r>  -17.3876    1.0000 </r>
       <r>  -15.2848    1.0000 </r>
       <r>  -15.2848    1.0000 </r>
       <r>   -9.3025    1.0000 </r>
       <r>   -9.3025    1.0000 </r>
       <r>   -5.2732    1.0000 </r>
       <r>   -5.2732    1.0000 </r>
       <r>   -0.8220    0.0000 </r>
       <r>   -0.8220    0.0000 </r>
       <r>    4.1357    0.0000 </r>
       <r>    4.1357    0.0000 </r>
      </set>
      <set comment="kpoint 222">
       <r>  -18.2360    1.0000 </r>
       <r>  -17.3263    1.0000 </r>
       <r>  -13.8010    1.0000 </r>
       <r>  -12.9703    1.0000 </r>
       <r>  -11.9755    1.0000 </r>
       <r>  -11.2123    1.0000 </r>
       <r>   -5.8437    1.0000 </r>
       <r>   -4.8982    1.0000 </r>
       <r>   -0.6549    0.0000 </r>
       <r>    0.4279    0.0000 </r>
       <r>    5.9082    0.0000 </r>
       <r>    6.6378    0.0000 </r>
      </set>
      <set comment="kpoint 223">
       <r>  -18.2268    1.0000 </r>
       <r>  -17.3179    1.0000 </r>
       <r>  -13.8715    1.0000 </r>
       <r>  -13.0381    1.0000 </r>
       <r>  -11.9000    1.0000 </r>
       <r>  -11.1444    1.0000 </r>
       <r>   -5.8366    1.0000 </r>
       <r>   -4.8964    1.0000 </r>
       <r>   -0.6688    0.0000 </r>
       <r>    0.4068    0.0000 </r>
       <r>    5.9211    0.0000 </r>
       <r>    6.6540    0.0000 </r>
      </set>
      <set comment="kpoint 224">
       <r>  -18.1994    1.0000 </r>
       <r>  -17.2929    1.0000 </r>
       <r>  -14.0545    1.0000 </r>
       <r>  -13.2153    1.0000 </r>
       <r>  -11.7026    1.0000 </r>
       <r>  -10.9674    1.0000 </r>
       <r>   -5.8155    1.0000 </r>
       <r>   -4.8913    1.0000 </r>
       <r>   -0.7089    0.0000 </r>
       <r>    0.3450    0.0000 </r>
       <r>    5.9598    0.0000 </r>
       <r>    6.7021    0.0000 </r>
      </set>
      <set comment="kpoint 225">
       <r>  -18.1539    1.0000 </r>
       <r>  -17.2518    1.0000 </r>
       <r>  -14.2999    1.0000 </r>
       <r>  -13.4556    1.0000 </r>
       <r>  -11.4342    1.0000 </r>
       <r>  -10.7294    1.0000 </r>
       <r>   -5.7808    1.0000 </r>
       <r>   -4.8839    1.0000 </r>
       <r>   -0.7708    0.0000 </r>
       <r>    0.2469    0.0000 </r>
       <r>    6.0228    0.0000 </r>
       <r>    6.7810    0.0000 </r>
      </set>
      <set comment="kpoint 226">
       <r>  -18.0904    1.0000 </r>
       <r>  -17.1954    1.0000 </r>
       <r>  -14.5722    1.0000 </r>
       <r>  -13.7257    1.0000 </r>
       <r>  -11.1321    1.0000 </r>
       <r>  -10.4664    1.0000 </r>
       <r>   -5.7332    1.0000 </r>
       <r>   -4.8760    1.0000 </r>
       <r>   -0.8477    0.0000 </r>
       <r>    0.1191    0.0000 </r>
       <r>    6.0923    0.0000 </r>
       <r>    6.3134    0.0000 </r>
      </set>
      <set comment="kpoint 227">
       <r>  -18.0093    1.0000 </r>
       <r>  -17.1253    1.0000 </r>
       <r>  -14.8507    1.0000 </r>
       <r>  -14.0068    1.0000 </r>
       <r>  -10.8186    1.0000 </r>
       <r>  -10.2012    1.0000 </r>
       <r>   -5.6737    1.0000 </r>
       <r>   -4.8700    1.0000 </r>
       <r>   -0.9312    0.0000 </r>
       <r>   -0.0306    0.0000 </r>
       <r>    5.7572    0.0000 </r>
       <r>    6.2527    0.0000 </r>
      </set>
      <set comment="kpoint 228">
       <r>  -17.9110    1.0000 </r>
       <r>  -17.0445    1.0000 </r>
       <r>  -15.1224    1.0000 </r>
       <r>  -14.2885    1.0000 </r>
       <r>  -10.5085    1.0000 </r>
       <r>   -9.9493    1.0000 </r>
       <r>   -5.6038    1.0000 </r>
       <r>   -4.8687    1.0000 </r>
       <r>   -1.0126    0.0000 </r>
       <r>   -0.1942    0.0000 </r>
       <r>    5.2989    0.0000 </r>
       <r>    5.8480    0.0000 </r>
      </set>
      <set comment="kpoint 229">
       <r>  -17.7963    1.0000 </r>
       <r>  -16.9586    1.0000 </r>
       <r>  -15.3758    1.0000 </r>
       <r>  -14.5640    1.0000 </r>
       <r>  -10.2133    1.0000 </r>
       <r>   -9.7228    1.0000 </r>
       <r>   -5.5253    1.0000 </r>
       <r>   -4.8751    1.0000 </r>
       <r>   -1.0830    0.0000 </r>
       <r>   -0.3636    0.0000 </r>
       <r>    4.8952    0.0000 </r>
       <r>    5.3802    0.0000 </r>
      </set>
      <set comment="kpoint 230">
       <r>  -17.6661    1.0000 </r>
       <r>  -16.8786    1.0000 </r>
       <r>  -15.5965    1.0000 </r>
       <r>  -14.8288    1.0000 </r>
       <r>   -9.9429    1.0000 </r>
       <r>   -9.5322    1.0000 </r>
       <r>   -5.4403    1.0000 </r>
       <r>   -4.8922    1.0000 </r>
       <r>   -1.1345    0.0000 </r>
       <r>   -0.5312    0.0000 </r>
       <r>    4.5595    0.0000 </r>
       <r>    4.9678    0.0000 </r>
      </set>
      <set comment="kpoint 231">
       <r>  -17.5222    1.0000 </r>
       <r>  -16.8261    1.0000 </r>
       <r>  -15.7605    1.0000 </r>
       <r>  -15.0789    1.0000 </r>
       <r>   -9.7067    1.0000 </r>
       <r>   -9.3867    1.0000 </r>
       <r>   -5.3515    1.0000 </r>
       <r>   -4.9223    1.0000 </r>
       <r>   -1.1605    0.0000 </r>
       <r>   -0.6901    0.0000 </r>
       <r>    4.3010    0.0000 </r>
       <r>    4.6204    0.0000 </r>
      </set>
      <set comment="kpoint 232">
       <r>  -17.3673    1.0000 </r>
       <r>  -16.8330    1.0000 </r>
       <r>  -15.8348    1.0000 </r>
       <r>  -15.3099    1.0000 </r>
       <r>   -9.5135    1.0000 </r>
       <r>   -9.2938    1.0000 </r>
       <r>   -5.2622    1.0000 </r>
       <r>   -4.9666    1.0000 </r>
       <r>   -1.1568    0.0000 </r>
       <r>   -0.8338    0.0000 </r>
       <r>    4.1276    0.0000 </r>
       <r>    4.3473    0.0000 </r>
      </set>
      <set comment="kpoint 233">
       <r>  -17.2064    1.0000 </r>
       <r>  -16.9147    1.0000 </r>
       <r>  -15.8031    1.0000 </r>
       <r>  -15.5159    1.0000 </r>
       <r>   -9.3709    1.0000 </r>
       <r>   -9.2590    1.0000 </r>
       <r>   -5.1756    1.0000 </r>
       <r>   -5.0248    1.0000 </r>
       <r>   -1.1210    0.0000 </r>
       <r>   -0.9566    0.0000 </r>
       <r>    4.0444    0.0000 </r>
       <r>    4.1565    0.0000 </r>
      </set>
      <set comment="kpoint 234">
       <r>  -17.0493    1.0000 </r>
       <r>  -17.0493    1.0000 </r>
       <r>  -15.6867    1.0000 </r>
       <r>  -15.6867    1.0000 </r>
       <r>   -9.2849    1.0000 </r>
       <r>   -9.2849    1.0000 </r>
       <r>   -5.0953    1.0000 </r>
       <r>   -5.0953    1.0000 </r>
       <r>   -1.0536    0.0000 </r>
       <r>   -1.0536    0.0000 </r>
       <r>    4.0543    0.0000 </r>
       <r>    4.0543    0.0000 </r>
      </set>
      <set comment="kpoint 235">
       <r>  -17.7893    1.0000 </r>
       <r>  -17.7893    1.0000 </r>
       <r>  -13.3958    1.0000 </r>
       <r>  -13.3958    1.0000 </r>
       <r>  -11.6033    1.0000 </r>
       <r>  -11.6033    1.0000 </r>
       <r>   -5.3737    1.0000 </r>
       <r>   -5.3737    1.0000 </r>
       <r>   -0.1240    0.0000 </r>
       <r>   -0.1240    0.0000 </r>
       <r>    6.5455    0.0000 </r>
       <r>    6.5455    0.0000 </r>
      </set>
      <set comment="kpoint 236">
       <r>  -17.7804    1.0000 </r>
       <r>  -17.7804    1.0000 </r>
       <r>  -13.4653    1.0000 </r>
       <r>  -13.4653    1.0000 </r>
       <r>  -11.5313    1.0000 </r>
       <r>  -11.5313    1.0000 </r>
       <r>   -5.3687    1.0000 </r>
       <r>   -5.3687    1.0000 </r>
       <r>   -0.1423    0.0000 </r>
       <r>   -0.1423    0.0000 </r>
       <r>    6.5584    0.0000 </r>
       <r>    6.5584    0.0000 </r>
      </set>
      <set comment="kpoint 237">
       <r>  -17.7538    1.0000 </r>
       <r>  -17.7538    1.0000 </r>
       <r>  -13.6463    1.0000 </r>
       <r>  -13.6463    1.0000 </r>
       <r>  -11.3432    1.0000 </r>
       <r>  -11.3432    1.0000 </r>
       <r>   -5.3537    1.0000 </r>
       <r>   -5.3537    1.0000 </r>
       <r>   -0.1954    0.0000 </r>
       <r>   -0.1954    0.0000 </r>
       <r>    6.5966    0.0000 </r>
       <r>    6.5966    0.0000 </r>
      </set>
      <set comment="kpoint 238">
       <r>  -17.7097    1.0000 </r>
       <r>  -17.7097    1.0000 </r>
       <r>  -13.8904    1.0000 </r>
       <r>  -13.8904    1.0000 </r>
       <r>  -11.0888    1.0000 </r>
       <r>  -11.0888    1.0000 </r>
       <r>   -5.3294    1.0000 </r>
       <r>   -5.3294    1.0000 </r>
       <r>   -0.2790    0.0000 </r>
       <r>   -0.2790    0.0000 </r>
       <r>    6.6568    0.0000 </r>
       <r>    6.6568    0.0000 </r>
      </set>
      <set comment="kpoint 239">
       <r>  -17.6486    1.0000 </r>
       <r>  -17.6486    1.0000 </r>
       <r>  -14.1632    1.0000 </r>
       <r>  -14.1632    1.0000 </r>
       <r>  -10.8049    1.0000 </r>
       <r>  -10.8049    1.0000 </r>
       <r>   -5.2971    1.0000 </r>
       <r>   -5.2971    1.0000 </r>
       <r>   -0.3865    0.0000 </r>
       <r>   -0.3865    0.0000 </r>
       <r>    6.5619    0.0000 </r>
       <r>    6.5619    0.0000 </r>
      </set>
      <set comment="kpoint 240">
       <r>  -17.5709    1.0000 </r>
       <r>  -17.5709    1.0000 </r>
       <r>  -14.4455    1.0000 </r>
       <r>  -14.4455    1.0000 </r>
       <r>  -10.5140    1.0000 </r>
       <r>  -10.5140    1.0000 </r>
       <r>   -5.2583    1.0000 </r>
       <r>   -5.2583    1.0000 </r>
       <r>   -0.5099    0.0000 </r>
       <r>   -0.5099    0.0000 </r>
       <r>    6.0464    0.0000 </r>
       <r>    6.0464    0.0000 </r>
      </set>
      <set comment="kpoint 241">
       <r>  -17.4777    1.0000 </r>
       <r>  -17.4777    1.0000 </r>
       <r>  -14.7261    1.0000 </r>
       <r>  -14.7261    1.0000 </r>
       <r>  -10.2313    1.0000 </r>
       <r>  -10.2313    1.0000 </r>
       <r>   -5.2151    1.0000 </r>
       <r>   -5.2151    1.0000 </r>
       <r>   -0.6405    0.0000 </r>
       <r>   -0.6405    0.0000 </r>
       <r>    5.5568    0.0000 </r>
       <r>    5.5568    0.0000 </r>
      </set>
      <set comment="kpoint 242">
       <r>  -17.3707    1.0000 </r>
       <r>  -17.3707    1.0000 </r>
       <r>  -14.9975    1.0000 </r>
       <r>  -14.9975    1.0000 </r>
       <r>   -9.9686    1.0000 </r>
       <r>   -9.9686    1.0000 </r>
       <r>   -5.1703    1.0000 </r>
       <r>   -5.1703    1.0000 </r>
       <r>   -0.7698    0.0000 </r>
       <r>   -0.7698    0.0000 </r>
       <r>    5.1183    0.0000 </r>
       <r>    5.1183    0.0000 </r>
      </set>
      <set comment="kpoint 243">
       <r>  -17.2527    1.0000 </r>
       <r>  -17.2527    1.0000 </r>
       <r>  -15.2533    1.0000 </r>
       <r>  -15.2533    1.0000 </r>
       <r>   -9.7362    1.0000 </r>
       <r>   -9.7362    1.0000 </r>
       <r>   -5.1268    1.0000 </r>
       <r>   -5.1268    1.0000 </r>
       <r>   -0.8894    0.0000 </r>
       <r>   -0.8894    0.0000 </r>
       <r>    4.7418    0.0000 </r>
       <r>    4.7418    0.0000 </r>
      </set>
      <set comment="kpoint 244">
       <r>  -17.1290    1.0000 </r>
       <r>  -17.1290    1.0000 </r>
       <r>  -15.4860    1.0000 </r>
       <r>  -15.4860    1.0000 </r>
       <r>   -9.5436    1.0000 </r>
       <r>   -9.5436    1.0000 </r>
       <r>   -5.0880    1.0000 </r>
       <r>   -5.0880    1.0000 </r>
       <r>   -0.9918    0.0000 </r>
       <r>   -0.9918    0.0000 </r>
       <r>    4.4367    0.0000 </r>
       <r>    4.4367    0.0000 </r>
      </set>
      <set comment="kpoint 245">
       <r>  -17.0100    1.0000 </r>
       <r>  -17.0100    1.0000 </r>
       <r>  -15.6837    1.0000 </r>
       <r>  -15.6837    1.0000 </r>
       <r>   -9.3990    1.0000 </r>
       <r>   -9.3990    1.0000 </r>
       <r>   -5.0573    1.0000 </r>
       <r>   -5.0573    1.0000 </r>
       <r>   -1.0702    0.0000 </r>
       <r>   -1.0702    0.0000 </r>
       <r>    4.2117    0.0000 </r>
       <r>    4.2117    0.0000 </r>
      </set>
      <set comment="kpoint 246">
       <r>  -16.9159    1.0000 </r>
       <r>  -16.9159    1.0000 </r>
       <r>  -15.8254    1.0000 </r>
       <r>  -15.8254    1.0000 </r>
       <r>   -9.3093    1.0000 </r>
       <r>   -9.3093    1.0000 </r>
       <r>   -5.0376    1.0000 </r>
       <r>   -5.0376    1.0000 </r>
       <r>   -1.1194    0.0000 </r>
       <r>   -1.1194    0.0000 </r>
       <r>    4.0736    0.0000 </r>
       <r>    4.0736    0.0000 </r>
      </set>
      <set comment="kpoint 247">
       <r>  -16.8783    1.0000 </r>
       <r>  -16.8783    1.0000 </r>
       <r>  -15.8789    1.0000 </r>
       <r>  -15.8789    1.0000 </r>
       <r>   -9.2789    1.0000 </r>
       <r>   -9.2789    1.0000 </r>
       <r>   -5.0308    1.0000 </r>
       <r>   -5.0308    1.0000 </r>
       <r>   -1.1363    0.0000 </r>
       <r>   -1.1363    0.0000 </r>
       <r>    4.0270    0.0000 </r>
       <r>    4.0270    0.0000 </r>
      </set>
     </set>
    </set>
   </array>
  </eigenvalues>
  <separator name="orbital magnetization" >
   <v name="MAGDIPOLOUT">      0.00000000      0.00000000      0.00000000</v>
  </separator>
 </calculation>
 <structure name="finalpos" >
  <crystal>
   <varray name="basis" >
    <v>       4.35979697       0.00000000       0.00000000 </v>
    <v>       0.00000000       2.45888033       0.00000000 </v>
    <v>       0.00000000       0.00000000      19.66731289 </v>
   </varray>
   <i name="volume">    210.83790140 </i>
   <varray name="rec_basis" >
    <v>       0.22936848       0.00000000       0.00000000 </v>
    <v>       0.00000000       0.40668917       0.00000000 </v>
    <v>       0.00000000       0.00000000       0.05084579 </v>
   </varray>
  </crystal>
  <varray name="positions" >
   <v>       0.99954013       0.00000000       0.00000000 </v>
   <v>       0.16712654       0.50000000      -0.00000000 </v>
   <v>       0.49954013       0.50000000       0.00000000 </v>
   <v>       0.66712654      -0.00000000      -0.00000000 </v>
  </varray>
 </structure>
</modeling>
