gr                                      
           1
     4.359797    0.000000    0.000000
     0.000000    2.458880    0.000000
     0.000000    0.000000   19.667313
   C 
   4
Direct configuration=     1
   0.99954297  0.00000000  0.00000000
   0.16712369  0.50000000  0.00000000
   0.49954297  0.50000000  0.00000000
   0.66712369  0.00000000  0.00000000
Direct configuration=     2
   0.99952935 -0.00000000  0.00000000
   0.16713732  0.50000000 -0.00000000
   0.49952935  0.50000000  0.00000000
   0.66713732  0.00000000 -0.00000000
Direct configuration=     3
   0.99954013 -0.00000000  0.00000000
   0.16712654  0.50000000 -0.00000000
   0.49954013  0.50000000  0.00000000
   0.66712654  0.00000000 -0.00000000
Direct configuration=     4
   0.99954015 -0.00000000  0.00000000
   0.16712652  0.50000000 -0.00000000
   0.49954015  0.50000000  0.00000000
   0.66712652 -0.00000000 -0.00000000
Direct configuration=     5
   0.99954014 -0.00000000  0.00000000
   0.16712653  0.50000000 -0.00000000
   0.49954014  0.50000000  0.00000000
   0.66712653 -0.00000000 -0.00000000
Direct configuration=     6
   0.99954013  0.00000000  0.00000000
   0.16712653  0.50000000 -0.00000000
   0.49954013  0.50000000  0.00000000
   0.66712653 -0.00000000 -0.00000000
Direct configuration=     7
   0.99954013  0.00000000  0.00000000
   0.16712654  0.50000000 -0.00000000
   0.49954013  0.50000000  0.00000000
   0.66712654 -0.00000000 -0.00000000
Direct configuration=     8
   0.99954013  0.00000000  0.00000000
   0.16712654  0.50000000 -0.00000000
   0.49954013  0.50000000  0.00000000
   0.66712654 -0.00000000 -0.00000000
Direct configuration=     9
   0.99954013  0.00000000  0.00000000
   0.16712654  0.50000000 -0.00000000
   0.49954013  0.50000000  0.00000000
   0.66712654 -0.00000000 -0.00000000
