    4    4  400    1
  0.5270948E+02  0.4274537E-09  0.2467322E-09  0.1999096E-08  0.5000000E-15
  1.000000000000000E-004
  CAR 
 gr                                      
     16    247     12
 
  0.0000000E+00  0.0000000E+00  0.0000000E+00  0.1157407E-02
    1      -22.250588
    2      -17.022057
    3      -15.970765
    4      -10.356574
    5       -9.155402
    6       -5.788429
    7       -5.786263
    8       -5.112495
    9       -1.076927
   10        0.524234
   11        1.325265
   12        1.708396
 
  0.4166667E-01  0.0000000E+00  0.0000000E+00  0.2314815E-02
    1      -22.240345
    2      -17.186488
    3      -15.791074
    4      -10.344338
    5       -9.145223
    6       -5.831192
    7       -5.808812
    8       -5.178913
    9       -0.994532
   10        0.538127
   11        1.339342
   12        1.722642
 
  0.8333333E-01  0.0000000E+00  0.0000000E+00  0.2314815E-02
    1      -22.209620
    2      -17.522818
    3      -15.409049
    4      -10.307648
    5       -9.114738
    6       -5.957715
    7       -5.875214
    8       -5.363229
    9       -0.762457
   10        0.579809
   11        1.381569
   12        1.765383
 
  0.1250000E+00  0.0000000E+00  0.0000000E+00  0.2314815E-02
    1      -22.158433
    2      -17.898754
    3      -14.957243
    4      -10.246562
    5       -9.064100
    6       -6.163005
    7       -5.981936
    8       -5.632193
    9       -0.414466
   10        0.649286
   11        1.451932
   12        1.836619
 
  0.1666667E+00  0.0000000E+00  0.0000000E+00  0.2314815E-02
    1      -22.086818
    2      -18.277482
    3      -14.472913
    4      -10.161176
    5       -8.993571
    6       -6.439611
    7       -6.123719
    8       -5.952834
    9        0.015598
   10        0.746564
   11        1.550412
   12        1.936352
 
  0.2083333E+00  0.0000000E+00  0.0000000E+00  0.2314815E-02
    1      -21.994824
    2      -18.647601
    3      -13.968094
    4      -10.051633
    5       -8.903530
    6       -6.778635
    7       -6.300597
    8       -6.294291
    9        0.501931
   10        0.871641
   11        1.676972
   12        2.064583
 
  0.2500000E+00  0.0000000E+00  0.0000000E+00  0.2314815E-02
    1      -21.882513
    2      -19.004520
    3      -13.448223
    4       -9.918121
    5       -8.794483
    6       -7.170664
    7       -6.659113
    8       -6.487038
    9        1.024505
   10        1.026496
   11        1.831563
   12        2.221310
 
  0.2916667E+00  0.0000000E+00  0.0000000E+00  0.2314815E-02
    1      -21.749967
    2      -19.345968
    3      -12.916644
    4       -9.760886
    5       -8.667083
    6       -7.606491
    7       -7.017754
    8       -6.695529
    9        1.205134
   10        1.576490
   11        2.014105
   12        2.406531
 
  0.3333333E+00  0.0000000E+00  0.0000000E+00  0.2314815E-02
    1      -21.597282
    2      -19.670636
    3      -12.376007
    4       -9.580237
    5       -8.522146
    6       -8.077567
    7       -7.369547
    8       -6.913846
    9        1.413490
   10        2.142020
   11        2.224475
   12        2.620242
 
  0.3750000E+00  0.0000000E+00  0.0000000E+00  0.2314815E-02
    1      -21.424572
    2      -19.977679
    3      -11.828792
    4       -9.376565
    5       -8.576224
    6       -8.360685
    7       -7.709792
    8       -7.136743
    9        1.649521
   10        2.462453
   11        2.713753
   12        2.862434
 
  0.4166667E+00  0.0000000E+00  0.0000000E+00  0.2314815E-02
    1      -21.231975
    2      -20.266502
    3      -11.277580
    4       -9.150357
    5       -9.095739
    6       -8.183942
    7       -8.035229
    8       -7.359693
    9        1.913156
   10        2.727590
   11        3.133092
   12        3.240933
 
  0.4583333E+00  0.0000000E+00  0.0000000E+00  0.2314815E-02
    1      -21.019653
    2      -20.536659
    3      -10.725205
    4       -9.630290
    5       -8.902228
    6       -8.343521
    7       -7.993432
    8       -7.578851
    9        2.204295
   10        2.868469
   11        3.018716
   12        3.432191
 
  0.5000000E+00  0.0000000E+00  0.0000000E+00  0.1157407E-02
    1      -20.787804
    2      -20.787804
    3      -10.174877
    4      -10.174877
    5       -8.632952
    6       -8.632952
    7       -7.790992
    8       -7.790992
    9        2.522803
   10        2.522803
   11        3.331121
   12        3.331121
 
  0.0000000E+00  0.2777778E-01  0.0000000E+00  0.2314815E-02
    1      -22.236924
    2      -17.010331
    3      -15.959178
    4      -10.340252
    5       -9.216995
    6       -5.843088
    7       -5.818570
    8       -5.095868
    9       -1.080860
   10        0.542768
   11        1.344043
   12        1.727400
 
  0.4166667E-01  0.2777778E-01  0.0000000E+00  0.4629630E-02
    1      -22.226682
    2      -17.174593
    3      -15.779708
    4      -10.328020
    5       -9.206799
    6       -5.886336
    7       -5.839960
    8       -5.162432
    9       -0.998437
   10        0.556662
   11        1.358119
   12        1.741647
 
  0.8333333E-01  0.2777778E-01  0.0000000E+00  0.4629630E-02
    1      -22.195961
    2      -17.510664
    3      -15.398098
    4      -10.291342
    5       -9.176263
    6       -6.010536
    7       -5.906783
    8       -5.347080
    9       -0.766386
   10        0.598346
   11        1.400343
   12        1.784388
 
  0.1250000E+00  0.2777778E-01  0.0000000E+00  0.4629630E-02
    1      -22.144781
    2      -17.886372
    3      -14.946786
    4      -10.230277
    5       -9.125535
    6       -6.210872
    7       -6.015646
    8       -5.616388
    9       -0.418647
   10        0.667827
   11        1.470703
   12        1.855625
 
  0.1666667E+00  0.2777778E-01  0.0000000E+00  0.4629630E-02
    1      -22.073177
    2      -18.264906
    3      -14.463033
    4      -10.144921
    5       -9.054872
    6       -6.481149
    7       -6.160428
    8       -5.937281
    9        0.010834
   10        0.765110
   11        1.569176
   12        1.955360
 
  0.2083333E+00  0.2777778E-01  0.0000000E+00  0.4629630E-02
    1      -21.981197
    2      -18.634860
    3      -13.958896
    4      -10.035415
    5       -8.964643
    6       -6.813357
    7       -6.334331
    8       -6.285191
    9        0.496238
   10        0.890195
   11        1.695729
   12        2.083592
 
  0.2500000E+00  0.2777778E-01  0.0000000E+00  0.4629630E-02
    1      -21.868904
    2      -18.991638
    3      -13.439833
    4       -9.901950
    5       -8.855342
    6       -7.198693
    7       -6.643765
    8       -6.530402
    9        1.019550
   10        1.043070
   11        1.850312
   12        2.240321
 
  0.2916667E+00  0.2777778E-01  0.0000000E+00  0.4629630E-02
    1      -21.736380
    2      -19.332964
    3      -12.909218
    4       -9.744768
    5       -8.727606
    6       -7.628323
    7       -7.002403
    8       -6.742003
    9        1.223711
   10        1.568015
   11        2.032847
   12        2.425545
 
  0.3333333E+00  0.2777778E-01  0.0000000E+00  0.4629630E-02
    1      -21.583721
    2      -19.657528
    3      -12.369731
    4       -9.564182
    5       -8.582232
    6       -8.093880
    7       -7.354150
    8       -6.963103
    9        1.432080
   10        2.131817
   11        2.243210
   12        2.639260
 
  0.3750000E+00  0.2777778E-01  0.0000000E+00  0.4629630E-02
    1      -21.411043
    2      -19.964481
    3      -11.823895
    4       -9.360581
    5       -8.587751
    6       -8.420212
    7       -7.694326
    8       -7.188412
    9        1.668126
   10        2.481188
   11        2.701846
   12        2.881457
 
  0.4166667E+00  0.2777778E-01  0.0000000E+00  0.4629630E-02
    1      -21.218482
    2      -20.253226
    3      -11.274339
    4       -9.134451
    5       -9.103188
    6       -8.242756
    7       -8.019678
    8       -7.413403
    9        1.931778
   10        2.746336
   11        3.152187
   12        3.259788
 
  0.4583333E+00  0.2777778E-01  0.0000000E+00  0.4629630E-02
    1      -21.006203
    2      -20.523317
    3      -10.723955
    4       -9.634306
    5       -8.886406
    6       -8.327880
    7       -8.051347
    8       -7.634256
    9        2.222939
   10        2.887195
   11        3.037493
   12        3.451232
 
  0.5000000E+00  0.2777778E-01  0.0000000E+00  0.2314815E-02
    1      -20.774403
    2      -20.774403
    3      -10.176020
    4      -10.176020
    5       -8.617218
    6       -8.617218
    7       -7.847785
    8       -7.847785
    9        2.541478
   10        2.541478
   11        3.349872
   12        3.349872
 
  0.0000000E+00  0.5555556E-01  0.0000000E+00  0.2314815E-02
    1      -22.195941
    2      -16.975158
    3      -15.924571
    4      -10.291318
    5       -9.396843
    6       -6.009036
    7       -5.908267
    8       -5.046008
    9       -1.093490
   10        0.598374
   11        1.400370
   12        1.784416
 
  0.4166667E-01  0.5555556E-01  0.0000000E+00  0.4629630E-02
    1      -22.185703
    2      -17.138923
    3      -15.745756
    4      -10.279098
    5       -9.386592
    6       -6.052139
    7       -5.927828
    8       -5.113021
    9       -1.010980
   10        0.612269
   11        1.414443
   12        1.798663
 
  0.8333333E-01  0.5555556E-01  0.0000000E+00  0.4629630E-02
    1      -22.154995
    2      -17.474223
    3      -15.365397
    4      -10.242459
    5       -9.355885
    6       -6.173307
    7       -5.992102
    8       -5.298696
    9       -0.778988
   10        0.653957
   11        1.456659
   12        1.841405
 
  0.1250000E+00  0.5555556E-01  0.0000000E+00  0.4629630E-02
    1      -22.103837
    2      -17.849248
    3      -14.915585
    4      -10.181457
    5       -9.304861
    6       -6.363082
    7       -6.103227
    8       -5.569054
    9       -0.432016
   10        0.723446
   11        1.527005
   12        1.912643
 
  0.1666667E+00  0.5555556E-01  0.0000000E+00  0.4629630E-02
    1      -22.032266
    2      -18.227200
    3      -14.433599
    4      -10.096191
    5       -9.233754
    6       -6.616134
    7       -6.255363
    8       -5.890718
    9       -0.004314
   10        0.820742
   11        1.625460
   12        2.012380
 
  0.2083333E+00  0.5555556E-01  0.0000000E+00  0.4629630E-02
    1      -21.940328
    2      -18.596658
    3      -13.931556
    4       -9.986800
    5       -9.142905
    6       -6.927558
    7       -6.439677
    8       -6.239071
    9        0.478249
   10        0.945847
   11        1.751990
   12        2.140617
 
  0.2500000E+00  0.5555556E-01  0.0000000E+00  0.4629630E-02
    1      -21.828089
    2      -18.953010
    3      -13.414985
    4       -9.853475
    5       -9.032768
    6       -7.291420
    7       -6.647158
    8       -6.597820
    9        0.997734
   10        1.098746
   11        1.906548
   12        2.297352
 
  0.2916667E+00  0.5555556E-01  0.0000000E+00  0.4629630E-02
    1      -21.695631
    2      -19.293971
    3      -12.887350
    4       -9.696460
    5       -8.903927
    6       -7.700772
    7       -6.956441
    8       -6.869776
    9        1.279417
   10        1.541518
   11        2.089057
   12        2.482585
 
  0.3333333E+00  0.5555556E-01  0.0000000E+00  0.4629630E-02
    1      -21.543051
    2      -19.618220
    3      -12.351440
    4       -9.516064
    5       -8.757116
    6       -8.148200
    7       -7.308047
    8       -7.100774
    9        1.487821
   10        2.100009
   11        2.299401
   12        2.696310
 
  0.3750000E+00  0.5555556E-01  0.0000000E+00  0.4629630E-02
    1      -21.370466
    2      -19.924902
    3      -11.809911
    4       -9.312678
    5       -8.626405
    6       -8.593241
    7       -7.648005
    8       -7.334596
    9        1.723905
   10        2.537374
   11        2.664668
   12        2.938519
 
  0.4166667E+00  0.5555556E-01  0.0000000E+00  0.4629630E-02
    1      -21.178015
    2      -20.213414
    3      -11.265554
    4       -9.128582
    5       -9.086786
    6       -8.413415
    7       -7.973098
    8       -7.566703
    9        1.987600
   10        2.802555
   11        3.209202
   12        3.223271
 
  0.4583333E+00  0.5555556E-01  0.0000000E+00  0.4629630E-02
    1      -20.965864
    2      -20.483302
    3      -10.721458
    4       -9.648616
    5       -8.838997
    6       -8.281022
    7       -8.218999
    8       -7.793395
    9        2.278813
   10        2.943255
   11        3.093809
   12        3.508340
 
  0.5000000E+00  0.5555556E-01  0.0000000E+00  0.2314815E-02
    1      -20.734215
    2      -20.734215
    3      -10.181131
    4      -10.181131
    5       -8.570081
    6       -8.570081
    7       -8.011651
    8       -8.011651
    9        2.597424
   10        2.597424
   11        3.406100
   12        3.406100
 
  0.0000000E+00  0.8333333E-01  0.0000000E+00  0.2314815E-02
    1      -22.127674
    2      -16.916550
    3      -15.867428
    4      -10.209874
    5       -9.681521
    6       -6.271902
    7       -6.055374
    8       -4.962974
    9       -1.117313
   10        0.691065
   11        1.494224
   12        1.879444
 
  0.4166667E-01  0.8333333E-01  0.0000000E+00  0.4629630E-02
    1      -22.117443
    2      -17.079523
    3      -15.689683
    4      -10.197676
    5       -9.671160
    6       -6.315962
    7       -6.070835
    8       -5.030783
    9       -1.034630
   10        0.704960
   11        1.508292
   12        1.893691
 
  0.8333333E-01  0.8333333E-01  0.0000000E+00  0.4629630E-02
    1      -22.086757
    2      -17.413561
    3      -15.311427
    4      -10.161103
    5       -9.640114
    6       -6.437641
    7       -6.125681
    8       -5.218264
    9       -0.802705
   10        0.746648
   11        1.550492
   12        1.936434
 
  0.1250000E+00  0.8333333E-01  0.0000000E+00  0.4629630E-02
    1      -22.035638
    2      -17.787453
    3      -14.864192
    4      -10.100210
    5       -9.588501
    6       -6.621385
    7       -6.229489
    8       -5.490450
    9       -0.457031
   10        0.816141
   11        1.620813
   12        2.007674
 
  0.1666667E+00  0.8333333E-01  0.0000000E+00  0.4629630E-02
    1      -21.964121
    2      -18.164432
    3      -14.385277
    4      -10.015097
    5       -9.516513
    6       -6.857885
    7       -6.382149
    8       -5.813441
    9       -0.032392
   10        0.913448
   11        1.719234
   12        2.107413
 
  0.2083333E+00  0.8333333E-01  0.0000000E+00  0.4629630E-02
    1      -21.872254
    2      -18.533057
    3      -13.886904
    4       -9.905903
    5       -9.424433
    6       -7.142435
    7       -6.576334
    8       -6.162545
    9        0.445273
   10        1.038570
   11        1.845722
   12        2.235655
 
  0.2500000E+00  0.8333333E-01  0.0000000E+00  0.4629630E-02
    1      -21.760105
    2      -18.888695
    3      -13.374739
    4       -9.772819
    5       -9.312633
    6       -7.472530
    7       -6.800940
    8       -6.521578
    9        0.958159
   10        1.191496
   11        2.000231
   12        2.392398
 
  0.2916667E+00  0.8333333E-01  0.0000000E+00  0.4629630E-02
    1      -21.627758
    2      -19.229042
    3      -12.852418
    4       -9.616089
    5       -9.181588
    6       -7.845869
    7       -7.044148
    8       -6.880156
    9        1.372200
   10        1.493860
   11        2.182690
   12        2.577640
 
  0.3333333E+00  0.8333333E-01  0.0000000E+00  0.4629630E-02
    1      -21.475309
    2      -19.552762
    3      -12.322946
    4       -9.436022
    5       -9.031890
    6       -8.258918
    7       -7.295749
    8       -7.231505
    9        1.580643
   10        2.043109
   11        2.392993
   12        2.791378
 
  0.3750000E+00  0.8333333E-01  0.0000000E+00  0.4629630E-02
    1      -21.302880
    2      -19.858989
    3      -11.789251
    4       -9.233005
    5       -8.864264
    6       -8.706584
    7       -7.571078
    8       -7.548090
    9        1.816770
   10        2.598092
   11        2.630952
   12        3.033604
 
  0.4166667E+00  0.8333333E-01  0.0000000E+00  0.4629630E-02
    1      -21.110612
    2      -20.147108
    3      -11.254463
    4       -9.182797
    5       -9.007522
    6       -8.679591
    7       -7.895717
    8       -7.795824
    9        2.080510
   10        2.896186
   11        3.149862
   12        3.304309
 
  0.4583333E+00  0.8333333E-01  0.0000000E+00  0.4629630E-02
    1      -20.898677
    2      -20.416658
    3      -10.722092
    4       -9.681292
    5       -8.760177
    6       -8.478940
    7       -8.203158
    8       -8.035230
    9        2.371777
   10        3.036392
   11        3.187625
   12        3.603579
 
  0.5000000E+00  0.8333333E-01  0.0000000E+00  0.2314815E-02
    1      -20.667278
    2      -20.667278
    3      -10.196156
    4      -10.196156
    5       -8.491731
    6       -8.491731
    7       -8.263616
    8       -8.263616
    9        2.690455
   10        2.690455
   11        3.499708
   12        3.499708
 
  0.0000000E+00  0.1111111E+00  0.0000000E+00  0.2314815E-02
    1      -22.032184
    2      -16.834527
    3      -15.788663
    4      -10.096093
    5      -10.052306
    6       -6.614986
    7       -6.256449
    8       -4.846871
    9       -1.156452
   10        0.820856
   11        1.625567
   12        2.012489
 
  0.4166667E-01  0.1111111E+00  0.0000000E+00  0.4629630E-02
    1      -22.021964
    2      -16.996469
    3      -15.612373
    4      -10.083927
    5      -10.041750
    6       -6.660558
    7       -6.266305
    8       -4.915902
    9       -1.073461
   10        0.834747
   11        1.639627
   12        2.026736
 
  0.8333333E-01  0.1111111E+00  0.0000000E+00  0.4629630E-02
    1      -21.991311
    2      -17.328802
    3      -15.237116
    4      -10.047449
    5      -10.010108
    6       -6.785057
    7       -6.306631
    8       -5.106126
    9       -0.841531
   10        0.876427
   11        1.681803
   12        2.069477
 
  0.1250000E+00  0.1111111E+00  0.0000000E+00  0.4629630E-02
    1      -21.940245
    2      -17.701116
    3      -14.793676
    4       -9.986716
    5       -9.957451
    6       -6.968364
    7       -6.393177
    8       -5.381048
    9       -0.497694
   10        0.945909
   11        1.752083
   12        2.140716
 
  0.1666667E+00  0.1111111E+00  0.0000000E+00  0.4629630E-02
    1      -21.868803
    2      -18.076724
    3      -14.319376
    4       -9.901826
    5       -9.883901
    6       -7.196644
    7       -6.532524
    8       -5.705987
    9       -0.077519
   10        1.043209
   11        1.850447
   12        2.240456
 
  0.2083333E+00  0.1111111E+00  0.0000000E+00  0.4629630E-02
    1      -21.777037
    2      -18.444169
    3      -13.826598
    4       -9.792921
    5       -9.789625
    6       -7.462074
    7       -6.722667
    8       -6.056165
    9        0.392978
   10        1.168331
   11        1.976864
   12        2.368701
 
  0.2500000E+00  0.1111111E+00  0.0000000E+00  0.4629630E-02
    1      -21.665016
    2      -18.798794
    3      -13.321248
    4       -9.674837
    5       -9.660190
    6       -7.760981
    7       -6.955498
    8       -6.415579
    9        0.896211
   10        1.321268
   11        2.131289
   12        2.525449
 
  0.2916667E+00  0.1111111E+00  0.0000000E+00  0.4629630E-02
    1      -21.532822
    2      -19.138270
    3      -12.807272
    4       -9.539794
    5       -9.503878
    6       -8.092669
    7       -7.218845
    8       -6.774056
    9        1.420083
   10        1.501992
   11        2.313658
   12        2.710701
 
  0.3333333E+00  0.1111111E+00  0.0000000E+00  0.4629630E-02
    1      -21.380558
    2      -19.461242
    3      -12.288081
    4       -9.384790
    5       -9.324292
    6       -8.458024
    7       -7.498766
    8       -7.124997
    9        1.710461
   10        1.955727
   11        2.523878
   12        2.924450
 
  0.3750000E+00  0.1111111E+00  0.0000000E+00  0.4629630E-02
    1      -21.208349
    2      -19.766823
    3      -11.767129
    4       -9.210155
    5       -9.121820
    6       -8.857575
    7       -7.782227
    8       -7.463979
    9        1.946616
   10        2.496026
   11        2.761791
   12        3.166692
 
  0.4166667E+00  0.1111111E+00  0.0000000E+00  0.4629630E-02
    1      -21.016340
    2      -20.054387
    3      -11.248223
    4       -9.289787
    5       -9.016250
    6       -8.896939
    7       -8.059301
    8       -7.787932
    9        2.210384
   10        3.027086
   11        3.034318
   12        3.437417
 
  0.4583333E+00  0.1111111E+00  0.0000000E+00  0.4629630E-02
    1      -20.804710
    2      -20.323458
    3      -10.735721
    4       -9.750669
    5       -8.803486
    6       -8.650249
    7       -8.323786
    8       -8.094649
    9        2.501675
   10        3.166356
   11        3.318841
   12        3.557653
 
  0.5000000E+00  0.1111111E+00  0.0000000E+00  0.2314815E-02
    1      -20.573665
    2      -20.573665
    3      -10.234648
    4      -10.234648
    5       -8.572386
    6       -8.572386
    7       -8.382500
    8       -8.382500
    9        2.820380
   10        2.820380
   11        3.630279
   12        3.630279
 
  0.0000000E+00  0.1388889E+00  0.0000000E+00  0.2314815E-02
    1      -21.909561
    2      -16.729116
    3      -15.689831
    4      -10.488507
    5       -9.950224
    6       -7.020488
    7       -6.506959
    8       -4.697846
    9       -1.216543
   10        0.987753
   11        1.794343
   12        2.183554
 
  0.4166667E-01  0.1388889E+00  0.0000000E+00  0.4629630E-02
    1      -21.899354
    2      -16.889885
    3      -15.515337
    4      -10.477619
    5       -9.938102
    6       -7.067953
    7       -6.510121
    8       -4.768662
    9       -1.133001
   10        1.001636
   11        1.808390
   12        2.197800
 
  0.8333333E-01  0.1388889E+00  0.0000000E+00  0.4629630E-02
    1      -21.868742
    2      -17.220134
    3      -15.144071
    4      -10.444955
    5       -9.901754
    6       -7.196638
    7       -6.532463
    8       -4.962839
    9       -0.900826
   10        1.043294
   11        1.850528
   12        2.240538
 
  0.1250000E+00  0.1388889E+00  0.0000000E+00  0.4629630E-02
    1      -21.817745
    2      -17.590435
    3      -14.705933
    4      -10.390506
    5       -9.841238
    6       -7.382887
    7       -6.594926
    8       -5.241608
    9       -0.559318
   10        1.112744
   11        1.920743
   12        2.311773
 
  0.1666667E+00  0.1388889E+00  0.0000000E+00  0.4629630E-02
    1      -21.746402
    2      -17.964263
    3      -14.238263
    4      -10.314246
    5       -9.756652
    6       -7.609480
    7       -6.709825
    8       -5.569209
    9       -0.145119
   10        1.210007
   11        2.019015
   12        2.411508
 
  0.2083333E+00  0.1388889E+00  0.0000000E+00  0.4629630E-02
    1      -21.654767
    2      -18.330166
    3      -13.753716
    4      -10.216121
    5       -9.648140
    6       -7.865893
    7       -6.880380
    8       -5.920798
    9        0.315718
   10        1.335098
   11        2.145312
   12        2.539750
 
  0.2500000E+00  0.1388889E+00  0.0000000E+00  0.4629630E-02
    1      -21.542909
    2      -18.683463
    3      -13.258619
    4      -10.096017
    5       -9.515891
    6       -8.146044
    7       -7.103131
    8       -6.280657
    9        0.805961
   10        1.488013
   11        2.299593
   12        2.696499
 
  0.2916667E+00  0.1388889E+00  0.0000000E+00  0.4629630E-02
    1      -21.410915
    2      -19.021798
    3      -12.757506
    4       -9.953726
    5       -9.360150
    6       -8.447182
    7       -7.369624
    8       -6.638924
    9        1.313958
   10        1.668726
   11        2.481797
   12        2.881755
 
  0.3333333E+00  0.1388889E+00  0.0000000E+00  0.4629630E-02
    1      -21.258891
    2      -19.343788
    3      -12.254580
    4       -9.788897
    5       -9.181225
    6       -8.769443
    7       -7.667678
    8       -6.989244
    9        1.831324
   10        1.877192
   11        2.691845
   12        3.095513
 
  0.3750000E+00  0.1388889E+00  0.0000000E+00  0.4629630E-02
    1      -21.086966
    2      -19.648525
    3      -11.754350
    4       -9.600985
    5       -9.115355
    6       -8.979499
    7       -7.982704
    8       -7.327369
    9        2.113345
   10        2.351567
   11        2.929619
   12        3.337768
 
  0.4166667E+00  0.1388889E+00  0.0000000E+00  0.4629630E-02
    1      -20.895295
    2      -19.935362
    3      -11.261955
    4       -9.488590
    5       -9.389229
    6       -8.755448
    7       -8.299612
    8       -7.650343
    9        2.377106
   10        2.869265
   11        3.194915
   12        3.608509
 
  0.4583333E+00  0.1388889E+00  0.0000000E+00  0.4629630E-02
    1      -20.684060
    2      -20.203809
    3      -10.783269
    4       -9.891800
    5       -9.152779
    6       -8.605363
    7       -8.509663
    8       -7.956041
    9        2.668379
   10        3.332973
   11        3.379195
   12        3.487158
 
  0.5000000E+00  0.1388889E+00  0.0000000E+00  0.2314815E-02
    1      -20.453478
    2      -20.453478
    3      -10.324610
    4      -10.324610
    5       -8.891154
    6       -8.891154
    7       -8.242882
    8       -8.242882
    9        2.987049
   10        2.987049
   11        3.790587
   12        3.790588
 
  0.0000000E+00  0.1666667E+00  0.0000000E+00  0.2314815E-02
    1      -21.759922
    2      -16.600358
    3      -15.573545
    4      -10.969580
    5       -9.772600
    6       -7.471837
    7       -6.801533
    8       -4.516091
    9       -1.304444
   10        1.191748
   11        2.000473
   12        2.392642
 
  0.4166667E-01  0.1666667E+00  0.0000000E+00  0.4629630E-02
    1      -21.749732
    2      -16.759960
    3      -15.401145
    4      -10.958121
    5       -9.760535
    6       -7.521493
    7       -6.797265
    8       -4.589498
    9       -1.219900
   10        1.205619
   11        2.014499
   12        2.406886
 
  0.8333333E-01  0.1666667E+00  0.0000000E+00  0.4629630E-02
    1      -21.719170
    2      -17.087847
    3      -15.035084
    4      -10.923690
    5       -9.724357
    6       -7.655266
    7       -6.799349
    8       -4.789279
    9       -0.986881
   10        1.247239
   11        2.056574
   12        2.449618
 
  0.1250000E+00  0.1666667E+00  0.0000000E+00  0.4629630E-02
    1      -21.668259
    2      -17.455708
    3      -14.604341
    4      -10.866110
    5       -9.664126
    6       -7.846413
    7       -6.833359
    8       -5.073318
    9       -0.648014
   10        1.316630
   11        2.126683
   12        2.520843
 
  0.1666667E+00  0.1666667E+00  0.0000000E+00  0.4629630E-02
    1      -21.597038
    2      -17.827326
    3      -14.146299
    4      -10.785053
    5       -9.579941
    6       -8.075111
    7       -6.916507
    8       -5.404419
    9       -0.241335
   10        1.413822
   11        2.224801
   12        2.620567
 
  0.2083333E+00  0.1666667E+00  0.0000000E+00  0.4629630E-02
    1      -21.505562
    2      -18.191296
    3      -13.674112
    4      -10.679982
    5       -9.471947
    6       -8.329037
    7       -7.056445
    8       -5.757753
    9        0.207204
   10        1.538836
   11        2.350895
   12        2.748797
 
  0.2500000E+00  0.1666667E+00  0.0000000E+00  0.4629630E-02
    1      -21.393905
    2      -18.542924
    3      -13.194937
    4      -10.550064
    5       -9.340333
    6       -8.600547
    7       -7.253804
    8       -6.118055
    9        0.680959
   10        1.691681
   11        2.504913
   12        2.905538
 
  0.2916667E+00  0.1666667E+00  0.0000000E+00  0.4629630E-02
    1      -21.262157
    2      -18.879824
    3      -12.714497
    4      -10.394056
    5       -9.185347
    6       -8.885082
    7       -7.503983
    8       -6.475908
    9        1.168937
   10        1.872336
   11        2.686791
   12        3.090791
 
  0.3333333E+00  0.1666667E+00  0.0000000E+00  0.4629630E-02
    1      -21.110430
    2      -19.200581
    3      -12.238603
    4      -10.210187
    5       -9.180563
    6       -9.007297
    7       -7.798392
    8       -6.825293
    9        1.663396
   10        2.080754
   11        2.896444
   12        3.304552
 
  0.3750000E+00  0.1666667E+00  0.0000000E+00  0.4629630E-02
    1      -20.938858
    2      -19.504260
    3      -11.773738
    4       -9.996169
    5       -9.487287
    6       -8.806564
    7       -8.125399
    8       -7.162192
    9        2.158501
   10        2.316864
   11        3.133757
   12        3.546814
 
  0.4166667E+00  0.1666667E+00  0.0000000E+00  0.4629630E-02
    1      -20.747606
    2      -19.790188
    3      -11.326969
    4       -9.807989
    5       -9.749585
    6       -8.583620
    7       -8.471063
    8       -7.483805
    9        2.580575
   10        2.649581
   11        3.398573
   12        3.817565
 
  0.4583333E+00  0.1666667E+00  0.0000000E+00  0.4629630E-02
    1      -20.536862
    2      -20.057855
    3      -10.904937
    4      -10.147573
    5       -9.469134
    6       -8.819966
    7       -8.339048
    8       -7.788103
    9        2.871778
   10        3.132682
   11        3.536125
   12        3.690582
 
  0.5000000E+00  0.1666667E+00  0.0000000E+00  0.2314815E-02
    1      -20.306856
    2      -20.306856
    3      -10.511838
    4      -10.511838
    5       -9.156822
    6       -9.156822
    7       -8.073572
    8       -8.073572
    9        3.190345
   10        3.190345
   11        3.604191
   12        3.604191
 