gr                                      
           1
     4.274537    0.000000    0.000000
     0.000000    2.467322    0.000000
     0.000000    0.000000   19.990963
   C 
   4
Direct configuration=     1
   0.99987391  0.00000000  0.00000000
   0.16679275  0.50000000  0.00000000
   0.49987391  0.50000000  0.00000000
   0.66679275  0.00000000  0.00000000
Direct configuration=     2
   1.00048247  0.00000000  0.00000000
   0.16618419  0.50000000  0.00000000
   0.50048247  0.50000000  0.00000000
   0.66618419 -0.00000000  0.00000000
Direct configuration=     3
   0.99999578  0.00000000 -0.00000000
   0.16667089  0.50000000  0.00000000
   0.49999578  0.50000000 -0.00000000
   0.66667089  0.00000000  0.00000000
Direct configuration=     4
   0.99999565 -0.00000000  0.00000000
   0.16667102  0.50000000 -0.00000000
   0.49999565  0.50000000  0.00000000
   0.66667102  0.00000000 -0.00000000
Direct configuration=     5
   0.99999562  0.00000000  0.00000000
   0.16667104  0.50000000 -0.00000000
   0.49999562  0.50000000  0.00000000
   0.66667104  0.00000000 -0.00000000
Direct configuration=     6
   0.99999561  0.00000000  0.00000000
   0.16667105  0.50000000 -0.00000000
   0.49999561  0.50000000  0.00000000
   0.66667105  0.00000000 -0.00000000
Direct configuration=     7
   0.99999562  0.00000000  0.00000000
   0.16667105  0.50000000 -0.00000000
   0.49999562  0.50000000  0.00000000
   0.66667105  0.00000000 -0.00000000
