    4    4  400    1
  0.5270948E+02  0.4273769E-09  0.2467176E-09  0.1999574E-08  0.5000000E-15
  1.000000000000000E-004
  CAR 
 gr                                      
     16    247     12
 
  0.0000000E+00  0.0000000E+00  0.0000000E+00  0.1157407E-02
    1      -22.252605
    2      -17.021275
    3      -15.972229
    4      -10.358132
    5       -9.156983
    6       -5.786833
    7       -5.785862
    8       -5.111437
    9       -1.075779
   10        0.523996
   11        1.325060
   12        1.708070
 
  0.4166667E-01  0.0000000E+00  0.0000000E+00  0.2314815E-02
    1      -22.242359
    2      -17.186070
    3      -15.792171
    4      -10.345890
    5       -9.146800
    6       -5.829593
    7       -5.808428
    8       -5.177907
    9       -0.993326
   10        0.537895
   11        1.339142
   12        1.722322
 
  0.8333333E-01  0.0000000E+00  0.0000000E+00  0.2314815E-02
    1      -22.211623
    2      -17.522828
    3      -15.409710
    4      -10.309185
    5       -9.116299
    6       -5.956109
    7       -5.874878
    8       -5.362358
    9       -0.761099
   10        0.579592
   11        1.381384
   12        1.765078
 
  0.1250000E+00  0.0000000E+00  0.0000000E+00  0.2314815E-02
    1      -22.160419
    2      -17.899055
    3      -14.957599
    4      -10.248073
    5       -9.065636
    6       -6.161389
    7       -5.981675
    8       -5.631504
    9       -0.412899
   10        0.649094
   11        1.451774
   12        1.836340
 
  0.1666667E+00  0.0000000E+00  0.0000000E+00  0.2314815E-02
    1      -22.088779
    2      -18.278000
    3      -14.473031
    4      -10.162652
    5       -8.995071
    6       -6.437990
    7       -6.123557
    8       -5.952341
    9        0.017400
   10        0.746407
   11        1.550290
   12        1.936109
 
  0.2083333E+00  0.0000000E+00  0.0000000E+00  0.2314815E-02
    1      -21.996754
    2      -18.648297
    3      -13.968008
    4      -10.053063
    5       -8.904984
    6       -6.777018
    7       -6.300301
    8       -6.294245
    9        0.503978
   10        0.871529
   11        1.676897
   12        2.064386
 
  0.2500000E+00  0.0000000E+00  0.0000000E+00  0.2314815E-02
    1      -21.884405
    2      -19.005370
    3      -13.447953
    4       -9.919495
    5       -8.795881
    6       -7.169065
    7       -6.659006
    8       -6.487119
    9        1.024449
   10        1.028789
   11        1.831545
   12        2.221170
 
  0.2916667E+00  0.0000000E+00  0.0000000E+00  0.2314815E-02
    1      -21.751813
    2      -19.346955
    3      -12.916204
    4       -9.762192
    5       -8.668414
    6       -7.604926
    7       -7.017828
    8       -6.695743
    9        1.205143
   10        1.579028
   11        2.014156
   12        2.406459
 
  0.3333333E+00  0.0000000E+00  0.0000000E+00  0.2314815E-02
    1      -21.599076
    2      -19.671747
    3      -12.375406
    4       -9.581467
    5       -8.523402
    6       -8.076052
    7       -7.369791
    8       -6.914195
    9        1.413574
   10        2.144797
   11        2.224604
   12        2.620247
 
  0.3750000E+00  0.0000000E+00  0.0000000E+00  0.2314815E-02
    1      -21.426308
    2      -19.978904
    3      -11.828039
    4       -9.377708
    5       -8.574777
    6       -8.361856
    7       -7.710196
    8       -7.137228
    9        1.649690
   10        2.462672
   11        2.716758
   12        2.862527
 
  0.4166667E+00  0.0000000E+00  0.0000000E+00  0.2314815E-02
    1      -21.233644
    2      -20.267832
    3      -11.276684
    4       -9.151403
    5       -9.094375
    6       -8.185018
    7       -8.035782
    8       -7.360309
    9        1.913419
   10        2.727913
   11        3.133283
   12        3.241673
 
  0.4583333E+00  0.0000000E+00  0.0000000E+00  0.2314815E-02
    1      -21.021249
    2      -20.538086
    3      -10.724175
    4       -9.629025
    5       -8.903166
    6       -8.344213
    7       -7.994404
    8       -7.579593
    9        2.204663
   10        2.869076
   11        3.019160
   12        3.432490
 
  0.5000000E+00  0.0000000E+00  0.0000000E+00  0.1157407E-02
    1      -20.789319
    2      -20.789319
    3      -10.173723
    4      -10.173723
    5       -8.633772
    6       -8.633772
    7       -7.791853
    8       -7.791853
    9        2.523286
   10        2.523286
   11        3.331731
   12        3.331731
 
  0.0000000E+00  0.2777778E-01  0.0000000E+00  0.2314815E-02
    1      -22.238940
    2      -17.009550
    3      -15.960640
    4      -10.341807
    5       -9.218575
    6       -5.842682
    7       -5.817000
    8       -5.094807
    9       -1.079716
   10        0.542532
   11        1.343840
   12        1.727077
 
  0.4166667E-01  0.2777778E-01  0.0000000E+00  0.4629630E-02
    1      -22.228694
    2      -17.174175
    3      -15.780803
    4      -10.329569
    5       -9.208374
    6       -5.885440
    7       -5.838893
    8       -5.161423
    9       -0.997236
   10        0.556431
   11        1.357921
   12        1.741329
 
  0.8333333E-01  0.2777778E-01  0.0000000E+00  0.4629630E-02
    1      -22.197963
    2      -17.510673
    3      -15.398758
    4      -10.292877
    5       -9.177823
    6       -6.009282
    7       -5.906112
    8       -5.346208
    9       -0.765031
   10        0.598130
   11        1.400161
   12        1.784086
 
  0.1250000E+00  0.2777778E-01  0.0000000E+00  0.4629630E-02
    1      -22.146766
    2      -17.886671
    3      -14.947140
    4      -10.231786
    5       -9.127069
    6       -6.209463
    7       -6.015195
    8       -5.615696
    9       -0.417084
   10        0.667636
   11        1.470546
   12        1.855348
 
  0.1666667E+00  0.2777778E-01  0.0000000E+00  0.4629630E-02
    1      -22.075137
    2      -18.265423
    3      -14.463150
    4      -10.146394
    5       -9.056370
    6       -6.479663
    7       -6.160147
    8       -5.936787
    9        0.012631
   10        0.764955
   11        1.569056
   12        1.955119
 
  0.2083333E+00  0.2777778E-01  0.0000000E+00  0.4629630E-02
    1      -21.983126
    2      -18.635555
    3      -13.958810
    4      -10.036842
    5       -8.966095
    6       -6.811833
    7       -6.334204
    8       -6.284893
    9        0.498279
   10        0.890085
   11        1.695656
   12        2.083397
 
  0.2500000E+00  0.2777778E-01  0.0000000E+00  0.4629630E-02
    1      -21.870795
    2      -18.992487
    3      -13.439564
    4       -9.903320
    5       -8.856738
    6       -7.197161
    7       -6.643657
    8       -6.530427
    9        1.021836
   10        1.043015
   11        1.850296
   12        2.240184
 
  0.2916667E+00  0.2777778E-01  0.0000000E+00  0.4629630E-02
    1      -21.738225
    2      -19.333950
    3      -12.908779
    4       -9.746073
    5       -8.728936
    6       -7.626806
    7       -7.002474
    8       -6.742178
    9        1.223721
   10        1.570545
   11        2.032899
   12        2.425476
 
  0.3333333E+00  0.2777778E-01  0.0000000E+00  0.4629630E-02
    1      -21.585514
    2      -19.658638
    3      -12.369131
    4       -9.565410
    5       -8.583486
    6       -8.092401
    7       -7.354392
    8       -6.963425
    9        1.432166
   10        2.134585
   11        2.243342
   12        2.639268
 
  0.3750000E+00  0.2777778E-01  0.0000000E+00  0.4629630E-02
    1      -21.412777
    2      -19.965705
    3      -11.823145
    4       -9.361721
    5       -8.586329
    6       -8.421380
    7       -7.694727
    8       -7.188876
    9        1.668297
   10        2.481410
   11        2.704840
   12        2.881552
 
  0.4166667E+00  0.2777778E-01  0.0000000E+00  0.4629630E-02
    1      -21.220150
    2      -20.254555
    3      -11.273447
    4       -9.135494
    5       -9.101843
    6       -8.243829
    7       -8.020229
    8       -7.414004
    9        1.932044
   10        2.746661
   11        3.152316
   12        3.265913
 
  0.4583333E+00  0.2777778E-01  0.0000000E+00  0.4629630E-02
    1      -21.007797
    2      -20.524742
    3      -10.722932
    4       -9.633054
    5       -8.887342
    6       -8.328569
    7       -8.052315
    8       -7.634988
    9        2.223310
   10        2.887804
   11        3.037938
   12        3.451534
 
  0.5000000E+00  0.2777778E-01  0.0000000E+00  0.2314815E-02
    1      -20.775917
    2      -20.775917
    3      -10.174876
    4      -10.174876
    5       -8.618036
    6       -8.618036
    7       -7.848639
    8       -7.848639
    9        2.541963
   10        2.541963
   11        3.350485
   12        3.350485
 
  0.0000000E+00  0.5555556E-01  0.0000000E+00  0.2314815E-02
    1      -22.197953
    2      -16.974378
    3      -15.926024
    4      -10.292865
    5       -9.398422
    6       -6.008616
    7       -5.906770
    8       -5.044938
    9       -1.092359
   10        0.598144
   11        1.400174
   12        1.784099
 
  0.4166667E-01  0.5555556E-01  0.0000000E+00  0.4629630E-02
    1      -22.187711
    2      -17.138505
    3      -15.746845
    4      -10.280640
    5       -9.388166
    6       -6.051577
    7       -5.926485
    8       -5.112004
    9       -1.009791
   10        0.612044
   11        1.414252
   12        1.798351
 
  0.8333333E-01  0.5555556E-01  0.0000000E+00  0.4629630E-02
    1      -22.156993
    2      -17.474229
    3      -15.366052
    4      -10.243985
    5       -9.357443
    6       -6.172527
    7       -5.991012
    8       -5.297817
    9       -0.777646
   10        0.653747
   11        1.456484
   12        1.841109
 
  0.1250000E+00  0.5555556E-01  0.0000000E+00  0.4629630E-02
    1      -22.105818
    2      -17.849544
    3      -14.915936
    4      -10.182958
    5       -9.306393
    6       -6.362120
    7       -6.102379
    8       -5.568356
    9       -0.430466
   10        0.723261
   11        1.526856
   12        1.912373
 
  0.1666667E+00  0.5555556E-01  0.0000000E+00  0.4629630E-02
    1      -22.034223
    2      -18.227713
    3      -14.433714
    4      -10.097656
    5       -9.235250
    6       -6.615023
    7       -6.254751
    8       -5.890218
    9       -0.002531
   10        0.820593
   11        1.625347
   12        2.012147
 
  0.2083333E+00  0.5555556E-01  0.0000000E+00  0.4629630E-02
    1      -21.942254
    2      -18.597349
    3      -13.931469
    4       -9.988219
    5       -9.144355
    6       -6.926330
    7       -6.439293
    8       -6.238767
    9        0.480272
   10        0.945743
   11        1.751925
   12        2.140430
 
  0.2500000E+00  0.5555556E-01  0.0000000E+00  0.4629630E-02
    1      -21.829976
    2      -18.953855
    3      -13.414717
    4       -9.854838
    5       -9.034161
    6       -7.290112
    7       -6.646991
    8       -6.597706
    9        1.000000
   10        1.098698
   11        1.906539
   12        2.297222
 
  0.2916667E+00  0.5555556E-01  0.0000000E+00  0.4629630E-02
    1      -21.697473
    2      -19.294953
    3      -12.886914
    4       -9.697756
    5       -8.905253
    6       -7.699420
    7       -6.956507
    8       -6.869811
    9        1.279434
   10        1.544023
   11        2.089116
   12        2.482522
 
  0.3333333E+00  0.5555556E-01  0.0000000E+00  0.4629630E-02
    1      -21.544841
    2      -19.619326
    3      -12.350846
    4       -9.517284
    5       -8.758364
    6       -8.146841
    7       -7.308283
    8       -7.100997
    9        1.487913
   10        2.102748
   11        2.299539
   12        2.696324
 
  0.3750000E+00  0.5555556E-01  0.0000000E+00  0.4629630E-02
    1      -21.372197
    2      -19.926122
    3      -11.809170
    4       -9.313811
    5       -8.625070
    6       -8.594401
    7       -7.648400
    8       -7.334990
    9        1.724082
   10        2.537603
   11        2.667631
   12        2.938622
 
  0.4166667E+00  0.5555556E-01  0.0000000E+00  0.4629630E-02
    1      -21.179679
    2      -20.214739
    3      -11.264677
    4       -9.127299
    5       -9.087821
    6       -8.414476
    7       -7.973642
    8       -7.567255
    9        1.987872
   10        2.802887
   11        3.209403
   12        3.226417
 
  0.4583333E+00  0.5555556E-01  0.0000000E+00  0.4629630E-02
    1      -20.967455
    2      -20.484724
    3      -10.720456
    4       -9.647408
    5       -8.839925
    6       -8.281705
    7       -8.219949
    8       -7.794092
    9        2.279191
   10        2.943871
   11        3.094261
   12        3.508650
 
  0.5000000E+00  0.5555556E-01  0.0000000E+00  0.2314815E-02
    1      -20.735725
    2      -20.735725
    3      -10.180018
    4      -10.180018
    5       -8.570892
    6       -8.570892
    7       -8.012480
    8       -8.012480
    9        2.597916
   10        2.597916
   11        3.406724
   12        3.406724
 
  0.0000000E+00  0.8333333E-01  0.0000000E+00  0.2314815E-02
    1      -22.129680
    2      -16.915772
    3      -15.868867
    4      -10.211407
    5       -9.683099
    6       -6.271461
    7       -6.053993
    8       -4.961890
    9       -1.116204
   10        0.690845
   11        1.494040
   12        1.879139
 
  0.4166667E-01  0.8333333E-01  0.0000000E+00  0.4629630E-02
    1      -22.119446
    2      -17.079103
    3      -15.690761
    4      -10.199205
    5       -9.672733
    6       -6.315478
    7       -6.069508
    8       -5.029753
    9       -1.033463
   10        0.704745
   11        1.508113
   12        1.893391
 
  0.8333333E-01  0.8333333E-01  0.0000000E+00  0.4629630E-02
    1      -22.088750
    2      -17.413564
    3      -15.312075
    4      -10.162615
    5       -9.641672
    6       -6.437083
    7       -6.124458
    8       -5.217373
    9       -0.801384
   10        0.746449
   11        1.550329
   12        1.936149
 
  0.1250000E+00  0.8333333E-01  0.0000000E+00  0.4629630E-02
    1      -22.037613
    2      -17.787745
    3      -14.864537
    4      -10.101698
    5       -9.590032
    6       -6.620758
    7       -6.228390
    8       -5.489742
    9       -0.455503
   10        0.815967
   11        1.620676
   12        2.007415
 
  0.1666667E+00  0.8333333E-01  0.0000000E+00  0.4629630E-02
    1      -21.966071
    2      -18.164940
    3      -14.385388
    4      -10.016548
    5       -9.518008
    6       -6.857178
    7       -6.381207
    8       -5.812931
    9       -0.030634
   10        0.913309
   11        1.719133
   12        2.107191
 
  0.2083333E+00  0.8333333E-01  0.0000000E+00  0.4629630E-02
    1      -21.874174
    2      -18.533743
    3      -13.886815
    4       -9.907309
    5       -9.425881
    6       -7.141628
    7       -6.575595
    8       -6.162231
    9        0.447267
   10        1.038476
   11        1.845668
   12        2.235479
 
  0.2500000E+00  0.8333333E-01  0.0000000E+00  0.4629630E-02
    1      -21.761987
    2      -18.889534
    3      -13.374471
    4       -9.774169
    5       -9.314023
    6       -7.471609
    7       -6.800441
    8       -6.521454
    9        0.960389
   10        1.191458
   11        2.000234
   12        2.392279
 
  0.2916667E+00  0.8333333E-01  0.0000000E+00  0.4629630E-02
    1      -21.629594
    2      -19.230018
    3      -12.851986
    4       -9.617372
    5       -9.182908
    6       -7.844841
    7       -7.043906
    8       -6.880211
    9        1.372228
   10        1.496321
   11        2.182762
   12        2.577589
 
  0.3333333E+00  0.8333333E-01  0.0000000E+00  0.4629630E-02
    1      -21.477093
    2      -19.553863
    3      -12.322363
    4       -9.437229
    5       -9.033129
    6       -8.257810
    7       -7.295757
    8       -7.231730
    9        1.580746
   10        2.045796
   11        2.393143
   12        2.791404
 
  0.3750000E+00  0.8333333E-01  0.0000000E+00  0.4629630E-02
    1      -21.304605
    2      -19.860203
    3      -11.788528
    4       -9.234125
    5       -8.865410
    6       -8.705435
    7       -7.571462
    8       -7.548329
    9        1.816958
   10        2.600997
   11        2.631192
   12        3.033718
 
  0.4166667E+00  0.8333333E-01  0.0000000E+00  0.4629630E-02
    1      -21.112271
    2      -20.148428
    3      -11.253615
    4       -9.181648
    5       -9.008545
    6       -8.680629
    7       -7.896249
    8       -7.796267
    9        2.080794
   10        2.896528
   11        3.152963
   12        3.304521
 
  0.4583333E+00  0.8333333E-01  0.0000000E+00  0.4629630E-02
    1      -20.900262
    2      -20.418074
    3      -10.721134
    4       -9.680178
    5       -8.761093
    6       -8.479857
    7       -8.203828
    8       -8.035852
    9        2.372165
   10        3.037020
   11        3.188088
   12        3.603800
 
  0.5000000E+00  0.8333333E-01  0.0000000E+00  0.2314815E-02
    1      -20.668782
    2      -20.668782
    3      -10.195108
    4      -10.195108
    5       -8.492530
    6       -8.492530
    7       -8.264395
    8       -8.264395
    9        2.690959
   10        2.690959
   11        3.500352
   12        3.500352
 
  0.0000000E+00  0.1111111E+00  0.0000000E+00  0.2314815E-02
    1      -22.034183
    2      -16.833751
    3      -15.790081
    4      -10.097607
    5      -10.053889
    6       -6.614522
    7       -6.255219
    8       -4.845767
    9       -1.155377
   10        0.820649
   11        1.625400
   12        2.012200
 
  0.4166667E-01  0.1111111E+00  0.0000000E+00  0.4629630E-02
    1      -22.023959
    2      -16.996047
    3      -15.613435
    4      -10.085437
    5      -10.043328
    6       -6.660090
    7       -6.265087
    8       -4.914852
    9       -1.072326
   10        0.834546
   11        1.639465
   12        2.026452
 
  0.8333333E-01  0.1111111E+00  0.0000000E+00  0.4629630E-02
    1      -21.993295
    2      -17.328800
    3      -15.237751
    4      -10.048943
    5      -10.011670
    6       -6.784591
    7       -6.305437
    8       -5.105219
    9       -0.840242
   10        0.876241
   11        1.681656
   12        2.069209
 
  0.1250000E+00  0.1111111E+00  0.0000000E+00  0.4629630E-02
    1      -21.942212
    2      -17.701401
    3      -14.794012
    4       -9.988185
    5       -9.958986
    6       -6.967910
    7       -6.392016
    8       -5.380327
    9       -0.496200
   10        0.945749
   11        1.751963
   12        2.140474
 
  0.1666667E+00  0.1111111E+00  0.0000000E+00  0.4629630E-02
    1      -21.870745
    2      -18.077225
    3      -14.319480
    4       -9.903259
    5       -9.885399
    6       -7.196196
    7       -6.531425
    8       -5.705464
    9       -0.075801
   10        1.043084
   11        1.850363
   12        2.240250
 
  0.2083333E+00  0.1111111E+00  0.0000000E+00  0.4629630E-02
    1      -21.778948
    2      -18.444847
    3      -13.826507
    4       -9.794308
    5       -9.791074
    6       -7.461610
    7       -6.721674
    8       -6.055838
    9        0.394925
   10        1.168252
   11        1.976826
   12        2.368541
 
  0.2500000E+00  0.1111111E+00  0.0000000E+00  0.4629630E-02
    1      -21.666889
    2      -18.799625
    3      -13.320984
    4       -9.676225
    5       -9.661521
    6       -7.760468
    7       -6.954669
    8       -6.415441
    9        0.898385
   10        1.321244
   11        2.131308
   12        2.525346
 
  0.2916667E+00  0.1111111E+00  0.0000000E+00  0.4629630E-02
    1      -21.534650
    2      -19.139238
    3      -12.806851
    4       -9.541107
    5       -9.505142
    6       -8.092070
    7       -7.218240
    8       -6.774097
    9        1.422479
   10        1.502034
   11        2.313746
   12        2.710665
 
  0.3333333E+00  0.1111111E+00  0.0000000E+00  0.4629630E-02
    1      -21.382334
    2      -19.462334
    3      -12.287518
    4       -9.386015
    5       -9.325481
    6       -8.457317
    7       -7.498430
    8       -7.125207
    9        1.710579
   10        1.958338
   11        2.524044
   12        2.924492
 
  0.3750000E+00  0.1111111E+00  0.0000000E+00  0.4629630E-02
    1      -21.210065
    2      -19.768029
    3      -11.766441
    4       -9.211275
    5       -9.122922
    6       -8.856761
    7       -7.782177
    8       -7.464348
    9        1.946819
   10        2.498843
   11        2.762047
   12        3.166822
 
  0.4166667E+00  0.1111111E+00  0.0000000E+00  0.4629630E-02
    1      -21.017990
    2      -20.055698
    3      -11.247430
    4       -9.288893
    5       -9.017247
    6       -8.897944
    7       -8.059525
    8       -7.788449
    9        2.210683
   10        3.027444
   11        3.037331
   12        3.437646
 
  0.4583333E+00  0.1111111E+00  0.0000000E+00  0.4629630E-02
    1      -20.806286
    2      -20.324865
    3      -10.734848
    4       -9.749738
    5       -8.804336
    6       -8.651147
    7       -8.324254
    8       -8.095303
    9        2.502080
   10        3.167001
   11        3.319318
   12        3.560787
 
  0.5000000E+00  0.1111111E+00  0.0000000E+00  0.2314815E-02
    1      -20.575161
    2      -20.575161
    3      -10.233726
    4      -10.233726
    5       -8.573062
    6       -8.573062
    7       -8.383282
    8       -8.383282
    9        2.820900
   10        2.820900
   11        3.630966
   12        3.630966
 
  0.0000000E+00  0.1388889E+00  0.0000000E+00  0.2314815E-02
    1      -21.911549
    2      -16.728344
    3      -15.691221
    4      -10.490102
    5       -9.951714
    6       -7.020000
    7       -6.505906
    8       -4.696715
    9       -1.215515
   10        0.987564
   11        1.794198
   12        2.183286
 
  0.4166667E-01  0.1388889E+00  0.0000000E+00  0.4629630E-02
    1      -21.901339
    2      -16.889463
    3      -15.516376
    4      -10.479210
    5       -9.939587
    6       -7.067482
    7       -6.509057
    8       -4.767589
    9       -1.131912
   10        1.001452
   11        1.808250
   12        2.197537
 
  0.8333333E-01  0.1388889E+00  0.0000000E+00  0.4629630E-02
    1      -21.870715
    2      -17.220126
    3      -15.144689
    4      -10.446529
    5       -9.903223
    6       -7.196213
    7       -6.531373
    8       -4.961912
    9       -0.899582
   10        1.043125
   11        1.850402
   12        2.240290
 
  0.1250000E+00  0.1388889E+00  0.0000000E+00  0.4629630E-02
    1      -21.819701
    2      -17.590712
    3      -14.706257
    4      -10.392051
    5       -9.842682
    6       -7.382523
    7       -6.593813
    8       -5.240871
    9       -0.557871
   10        1.112601
   11        1.920643
   12        2.311551
 
  0.1666667E+00  0.1388889E+00  0.0000000E+00  0.4629630E-02
    1      -21.748334
    2      -17.964754
    3      -14.238360
    4      -10.315752
    5       -9.758061
    6       -7.609176
    7       -6.708708
    8       -5.568671
    9       -0.143454
   10        1.209900
   11        2.018952
   12        2.411323
 
  0.2083333E+00  0.1388889E+00  0.0000000E+00  0.4629630E-02
    1      -21.656668
    2      -18.330833
    3      -13.753624
    4      -10.217574
    5       -9.649503
    6       -7.865637
    7       -6.879292
    8       -5.920456
    9        0.317602
   10        1.335037
   11        2.145296
   12        2.539611
 
  0.2500000E+00  0.1388889E+00  0.0000000E+00  0.4629630E-02
    1      -21.544771
    2      -18.684283
    3      -13.258362
    4      -10.097402
    5       -9.517198
    6       -8.145814
    7       -7.102119
    8       -6.280503
    9        0.808060
   10        1.488007
   11        2.299634
   12        2.696417
 
  0.2916667E+00  0.1388889E+00  0.0000000E+00  0.4629630E-02
    1      -21.412732
    2      -19.022755
    3      -12.757105
    4       -9.955028
    5       -9.361391
    6       -8.446943
    7       -7.368745
    8       -6.638948
    9        1.316264
   10        1.668787
   11        2.481906
   12        2.881740
 
  0.3333333E+00  0.1388889E+00  0.0000000E+00  0.4629630E-02
    1      -21.260656
    2      -19.344869
    3      -12.254057
    4       -9.790095
    5       -9.182390
    6       -8.769157
    7       -7.666994
    8       -6.989436
    9        1.833829
   10        1.877328
   11        2.692032
   12        3.095576
 
  0.3750000E+00  0.1388889E+00  0.0000000E+00  0.4629630E-02
    1      -21.088672
    2      -19.649720
    3      -11.753730
    4       -9.602054
    5       -9.114980
    6       -8.980578
    7       -7.982276
    8       -7.327718
    9        2.113568
   10        2.354262
   11        2.929894
   12        3.337919
 
  0.4166667E+00  0.1388889E+00  0.0000000E+00  0.4629630E-02
    1      -20.896934
    2      -19.936662
    3      -11.261271
    4       -9.488101
    5       -9.390138
    6       -8.756431
    7       -8.299483
    8       -7.650840
    9        2.377425
   10        2.872141
   11        3.195291
   12        3.608758
 
  0.4583333E+00  0.1388889E+00  0.0000000E+00  0.4629630E-02
    1      -20.685626
    2      -20.205205
    3      -10.782563
    4       -9.891200
    5       -9.153488
    6       -8.605542
    7       -8.510539
    8       -7.956674
    9        2.668803
   10        3.333638
   11        3.382242
   12        3.487650
 
  0.5000000E+00  0.1388889E+00  0.0000000E+00  0.2314815E-02
    1      -20.454963
    2      -20.454963
    3      -10.323933
    4      -10.323933
    5       -8.891620
    6       -8.891620
    7       -8.243642
    8       -8.243642
    9        2.987589
   10        2.987589
   11        3.791690
   12        3.791690
 
  0.0000000E+00  0.1666667E+00  0.0000000E+00  0.2314815E-02
    1      -21.761897
    2      -16.599590
    3      -15.574898
    4      -10.971199
    5       -9.774060
    6       -7.471326
    7       -6.800672
    8       -4.514928
    9       -1.303478
   10        1.191582
   11        2.000353
   12        2.392399
 
  0.4166667E-01  0.1666667E+00  0.0000000E+00  0.4629630E-02
    1      -21.751704
    2      -16.759537
    3      -15.402153
    4      -10.959734
    5       -9.761990
    6       -7.521013
    7       -6.796378
    8       -4.588397
    9       -1.218872
   10        1.205458
   11        2.014385
   12        2.406648
 
  0.8333333E-01  0.1666667E+00  0.0000000E+00  0.4629630E-02
    1      -21.721131
    2      -17.087833
    3      -15.035679
    4      -10.925285
    5       -9.725797
    6       -7.654861
    7       -6.798403
    8       -4.788330
    9       -0.985696
   10        1.247093
   11        2.056475
   12        2.449395
 
  0.1250000E+00  0.1666667E+00  0.0000000E+00  0.4629630E-02
    1      -21.670203
    2      -17.455975
    3      -14.604648
    4      -10.867673
    5       -9.665540
    6       -7.846100
    7       -6.832351
    8       -5.072562
    9       -0.646629
   10        1.316510
   11        2.126610
   12        2.520646
 
  0.1666667E+00  0.1666667E+00  0.0000000E+00  0.4629630E-02
    1      -21.598957
    2      -17.827806
    3      -14.146388
    4      -10.786572
    5       -9.581320
    6       -8.074891
    7       -6.915451
    8       -5.403863
    9       -0.239740
   10        1.413737
   11        2.224765
   12        2.620407
 
  0.2083333E+00  0.1666667E+00  0.0000000E+00  0.4629630E-02
    1      -21.507450
    2      -18.191951
    3      -13.674023
    4      -10.681440
    5       -9.473280
    6       -8.328904
    7       -7.055368
    8       -5.757394
    9        0.209006
   10        1.538797
   11        2.350904
   12        2.748684
 
  0.2500000E+00  0.1666667E+00  0.0000000E+00  0.4629630E-02
    1      -21.395754
    2      -18.543731
    3      -13.194700
    4      -10.551441
    5       -9.341611
    6       -8.600486
    7       -7.252743
    8       -6.117883
    9        0.682960
   10        1.691698
   11        2.504980
   12        2.905482
 
  0.2916667E+00  0.1666667E+00  0.0000000E+00  0.4629630E-02
    1      -21.263961
    2      -18.880767
    3      -12.714141
    4      -10.395327
    5       -9.186559
    6       -8.885072
    7       -7.502980
    8       -6.475912
    9        1.171126
   10        1.872419
   11        2.686925
   12        3.090802
 
  0.3333333E+00  0.1666667E+00  0.0000000E+00  0.4629630E-02
    1      -21.112181
    2      -19.201649
    3      -12.238165
    4      -10.211320
    5       -9.180576
    6       -9.008433
    7       -7.797499
    8       -6.825464
    9        1.665764
   10        2.080913
   11        2.896655
   12        3.304641
 
  0.3750000E+00  0.1666667E+00  0.0000000E+00  0.4629630E-02
    1      -20.940551
    2      -19.505442
    3      -11.773260
    4       -9.997120
    5       -9.487286
    6       -8.807615
    7       -8.124674
    8       -7.162519
    9        2.161039
   10        2.317109
   11        3.134056
   12        3.546990
 
  0.4166667E+00  0.1666667E+00  0.0000000E+00  0.4629630E-02
    1      -20.749232
    2      -19.791474
    3      -11.326507
    4       -9.807931
    5       -9.750302
    6       -8.584575
    7       -8.470566
    8       -7.484277
    9        2.580917
   10        2.652278
   11        3.398970
   12        3.817840
 
  0.4583333E+00  0.1666667E+00  0.0000000E+00  0.4629630E-02
    1      -20.538414
    2      -20.059238
    3      -10.904547
    4      -10.147418
    5       -9.469565
    6       -8.819754
    7       -8.339897
    8       -7.788711
    9        2.872226
   10        3.135531
   11        3.536815
   12        3.691085
 
  0.5000000E+00  0.1666667E+00  0.0000000E+00  0.2314815E-02
    1      -20.308326
    2      -20.308326
    3      -10.511561
    4      -10.511561
    5       -9.156932
    6       -9.156932
    7       -8.074306
    8       -8.074306
    9        3.190910
   10        3.190910
   11        3.607179
   12        3.607179
 