       N       E                     dE             d eps       ncg     rms          rms(c)
DAV:   1     0.191038109429E+03    0.19104E+03   -0.10661E+04  5928   0.275E+03
DAV:   2    -0.864079593236E+01   -0.19968E+03   -0.17654E+03 10356   0.259E+02
DAV:   3    -0.383718345726E+02   -0.29731E+02   -0.29134E+02  7440   0.120E+02    0.735E+00
RMM:   4    -0.376986270714E+02    0.67321E+00   -0.95224E+00  5928   0.264E+01    0.426E+00
RMM:   5    -0.369232049768E+02    0.77542E+00   -0.28658E+00  5931   0.116E+01    0.739E-01
RMM:   6    -0.369237715854E+02   -0.56661E-03   -0.77271E-02  6343   0.202E+00    0.525E-01
RMM:   7    -0.369141770332E+02    0.95946E-02   -0.34474E-02  5945   0.161E+00    0.351E-01
RMM:   8    -0.369082275414E+02    0.59495E-02   -0.79906E-03  5931   0.591E-01    0.136E-01
RMM:   9    -0.369078855960E+02    0.34195E-03   -0.21224E-02  5930   0.863E-01    0.164E-01
RMM:  10    -0.369077258114E+02    0.15978E-03   -0.27490E-03  5930   0.375E-01    0.300E-02
RMM:  11    -0.369103285681E+02   -0.26028E-02   -0.88070E-04  5934   0.184E-01    0.474E-02
RMM:  12    -0.369172838237E+02   -0.69553E-02   -0.42140E-04  5939   0.105E-01    0.148E-02
RMM:  13    -0.369249349691E+02   -0.76511E-02   -0.61102E-02  6090   0.398E-02    0.159E-02
RMM:  14    -0.369252386032E+02   -0.30363E-03   -0.87585E-04  5931   0.145E-02    0.135E-02
RMM:  15    -0.369253736776E+02   -0.13507E-03   -0.11863E-04  5931   0.326E-02    0.240E-03
RMM:  16    -0.369253936740E+02   -0.19996E-04   -0.30127E-06  5943   0.972E-03    0.273E-03
RMM:  17    -0.369254122301E+02   -0.18556E-04   -0.41051E-06  5930   0.113E-02    0.174E-03
RMM:  18    -0.369254133844E+02   -0.11543E-05   -0.12243E-07  5985   0.240E-03    0.162E-03
RMM:  19    -0.369254159362E+02   -0.25517E-05   -0.42452E-08  5928   0.144E-03    0.119E-03
RMM:  20    -0.369254189748E+02   -0.30386E-05   -0.42932E-07  5928   0.368E-03    0.623E-04
RMM:  21    -0.369254196728E+02   -0.69809E-06   -0.40485E-08  5955   0.154E-03    0.123E-04
RMM:  22    -0.369254197920E+02   -0.11920E-06   -0.20771E-09  5897   0.309E-04    0.551E-05
RMM:  23    -0.369254198037E+02   -0.11643E-07   -0.60672E-10  4951   0.169E-04    0.158E-05
RMM:  24    -0.369254198128E+02   -0.90976E-08   -0.10822E-10  4210   0.594E-05    0.166E-05
RMM:  25    -0.369254198085E+02    0.43134E-08   -0.37279E-11  3846   0.555E-05    0.377E-06
RMM:  26    -0.369254198079E+02    0.58412E-09   -0.24132E-11  3701   0.411E-05    0.424E-07
RMM:  27    -0.369254198079E+02   -0.44679E-10   -0.12379E-11  3132   0.305E-05
   1 F= -.36925420E+02 E0= -.36925356E+02  d E =-.369254E+02
       N       E                     dE             d eps       ncg     rms          rms(c)
DAV:   1    -0.369244183812E+02    0.10014E-02   -0.90748E-02  6712   0.284E+00    0.619E-02
RMM:   2    -0.369244593632E+02   -0.40982E-04   -0.14546E-03  5928   0.341E-01    0.437E-02
RMM:   3    -0.369244116556E+02    0.47708E-04   -0.26329E-04  5950   0.131E-01    0.107E-02
RMM:   4    -0.369244072391E+02    0.44165E-05   -0.15409E-05  6096   0.314E-02    0.310E-03
RMM:   5    -0.369244073973E+02   -0.15822E-06   -0.11908E-06  6175   0.786E-03    0.153E-03
RMM:   6    -0.369244073089E+02    0.88380E-07   -0.20673E-07  6103   0.351E-03    0.111E-04
RMM:   7    -0.369244073096E+02   -0.61868E-09   -0.11510E-08  6101   0.770E-04    0.879E-05
RMM:   8    -0.369244073086E+02    0.99374E-09   -0.84803E-10  5524   0.228E-04    0.143E-05
RMM:   9    -0.369244073088E+02   -0.18827E-09   -0.49947E-11  3873   0.690E-05    0.400E-06
RMM:  10    -0.369244073093E+02   -0.54217E-09   -0.25926E-11  3800   0.534E-05    0.922E-07
RMM:  11    -0.369244073091E+02    0.15098E-09   -0.95209E-12  3480   0.401E-05    0.373E-07
RMM:  12    -0.369244073093E+02   -0.15928E-09   -0.87488E-12  3205   0.335E-05    0.236E-07
RMM:  13    -0.369244073089E+02    0.44258E-09   -0.34541E-12  2974   0.297E-05    0.372E-07
RMM:  14    -0.369244073094E+02   -0.49874E-09   -0.38685E-12  2731   0.262E-05    0.153E-07
RMM:  15    -0.369244073092E+02    0.20657E-09   -0.38472E-12  2519   0.238E-05    0.229E-07
RMM:  16    -0.369244073090E+02    0.11983E-09   -0.97477E-13  2361   0.220E-05    0.476E-08
RMM:  17    -0.369244073092E+02   -0.16507E-09   -0.13085E-12  2240   0.209E-05    0.299E-08
RMM:  18    -0.369244073093E+02   -0.13756E-09   -0.83866E-13  2123   0.202E-05    0.712E-08
RMM:  19    -0.369244073089E+02    0.39711E-09    0.43027E-13  2083   0.192E-05    0.464E-08
RMM:  20    -0.369244073090E+02   -0.48999E-10    0.79977E-15  1986   0.186E-05
   2 F= -.36924407E+02 E0= -.36924362E+02  d E =0.101250E-02
       N       E                     dE             d eps       ncg     rms          rms(c)
DAV:   1    -0.369254956642E+02   -0.10884E-02   -0.58288E-02  6292   0.228E+00    0.497E-02
RMM:   2    -0.369255208472E+02   -0.25183E-04   -0.92311E-04  5929   0.274E-01    0.350E-02
RMM:   3    -0.369254897023E+02    0.31145E-04   -0.16596E-04  5970   0.104E-01    0.838E-03
RMM:   4    -0.369254870109E+02    0.26914E-05   -0.92715E-06  6072   0.242E-02    0.248E-03
RMM:   5    -0.369254870947E+02   -0.83813E-07   -0.73251E-07  6194   0.619E-03    0.119E-03
RMM:   6    -0.369254870442E+02    0.50487E-07   -0.12130E-07  6091   0.269E-03    0.889E-05
RMM:   7    -0.369254870460E+02   -0.17521E-08   -0.70623E-09  6093   0.605E-04    0.688E-05
RMM:   8    -0.369254870458E+02    0.17860E-09   -0.50074E-10  4843   0.178E-04    0.112E-05
RMM:   9    -0.369254870463E+02   -0.47737E-09   -0.27681E-11  3830   0.643E-05    0.314E-06
RMM:  10    -0.369254870463E+02   -0.30923E-10   -0.23086E-11  3761   0.514E-05
   3 F= -.36925487E+02 E0= -.36925422E+02  d E =-.107974E-02
       N       E                     dE             d eps       ncg     rms          rms(c)
DAV:   1    -0.369254870514E+02   -0.51421E-08   -0.27834E-07  6676   0.502E-03    0.109E-04
RMM:   2    -0.369254870517E+02   -0.27694E-09   -0.44995E-09  5873   0.605E-04    0.769E-05
RMM:   3    -0.369254870517E+02    0.32287E-10   -0.81633E-10  5824   0.233E-04    0.183E-05
RMM:   4    -0.369254870516E+02    0.42746E-10   -0.15542E-11  3622   0.576E-05    0.512E-06
RMM:   5    -0.369254870517E+02   -0.64801E-10   -0.48065E-11  3739   0.609E-05
   4 F= -.36925487E+02 E0= -.36925422E+02  d E =-.537784E-08
       N       E                     dE             d eps       ncg     rms          rms(c)
DAV:   1    -0.369254870513E+02    0.37687E-09    0.56831E-09  5212   0.114E-04    0.982E-07
RMM:   2    -0.369254870518E+02   -0.56741E-09    0.20020E-12  3082   0.313E-05    0.523E-07
RMM:   3    -0.369254870516E+02    0.18986E-09   -0.25950E-12  2801   0.302E-05    0.241E-07
RMM:   4    -0.369254870519E+02   -0.23283E-09   -0.24494E-12  2522   0.272E-05    0.125E-07
RMM:   5    -0.369254870517E+02    0.12960E-09   -0.16176E-12  2283   0.242E-05    0.307E-08
RMM:   6    -0.369254870519E+02   -0.15655E-09   -0.73937E-13  1873   0.221E-05    0.368E-08
RMM:   7    -0.369254870516E+02    0.29138E-09   -0.16088E-12  1732   0.212E-05    0.119E-07
RMM:   8    -0.369254870520E+02   -0.43201E-09   -0.16209E-12  1546   0.190E-05    0.119E-07
RMM:   9    -0.369254870517E+02    0.30832E-09   -0.21556E-12  1566   0.182E-05    0.114E-07
RMM:  10    -0.369254870517E+02   -0.27285E-10   -0.27700E-13  1369   0.175E-05
   5 F= -.36925487E+02 E0= -.36925422E+02  d E =-.552518E-10
       N       E                     dE             d eps       ncg     rms          rms(c)
DAV:   1    -0.369254870513E+02    0.38835E-09    0.57885E-09  4712   0.477E-05    0.637E-07
RMM:   2    -0.369254870518E+02   -0.46521E-09    0.25671E-13  1109   0.125E-05    0.393E-07
RMM:   3    -0.369254870517E+02    0.14347E-09   -0.86885E-14  1229   0.123E-05    0.890E-09
RMM:   4    -0.369254870517E+02   -0.25011E-10   -0.35527E-13  1158   0.123E-05    0.557E-09
RMM:   5    -0.369254870517E+02   -0.14097E-10    0.13804E-13   901   0.122E-05
   6 F= -.36925487E+02 E0= -.36925422E+02  d E =0.547971E-10
       N       E                     dE             d eps       ncg     rms          rms(c)
DAV:   1    -0.369254870512E+02    0.51921E-09    0.58084E-09  4440   0.166E-05    0.372E-07
RMM:   2    -0.369254870518E+02   -0.64495E-09    0.68094E-14   400   0.528E-06    0.228E-07
RMM:   3    -0.369254870519E+02   -0.72077E-10    0.75166E-14   561   0.524E-06    0.416E-09
RMM:   4    -0.369254870518E+02    0.42746E-10    0.58390E-14   411   0.524E-06    0.165E-09
RMM:   5    -0.369254870519E+02   -0.54911E-10   -0.49837E-14   661   0.523E-06
   7 F= -.36925487E+02 E0= -.36925422E+02  d E =-.195882E-09
       N       E                     dE             d eps       ncg     rms          rms(c)
DAV:   1    -0.369254870510E+02    0.88153E-09    0.57940E-09  3496   0.424E-05    0.852E-07
RMM:   2    -0.369254870517E+02   -0.73624E-09    0.22657E-14   899   0.111E-05    0.527E-07
RMM:   3    -0.369254870518E+02   -0.14813E-09    0.85528E-15   442   0.110E-05    0.100E-08
RMM:   4    -0.369254870518E+02    0.13756E-10   -0.21135E-14   311   0.110E-05    0.372E-09
RMM:   5    -0.369254870517E+02    0.14188E-09    0.00000E+00   213   0.110E-05    0.203E-10
RMM:   6    -0.369254870518E+02   -0.15893E-09    0.00000E+00   286   0.110E-05    0.220E-10
RMM:   7    -0.369254870518E+02    0.84697E-10    0.00000E+00   268   0.110E-05
   8 F= -.36925487E+02 E0= -.36925422E+02  d E =0.133468E-09
       N       E                     dE             d eps       ncg     rms          rms(c)
DAV:   1    -0.369254870511E+02    0.70622E-09    0.58023E-09  3292   0.274E-05    0.525E-07
RMM:   2    -0.369254870515E+02   -0.40495E-09    0.00000E+00   293   0.717E-06    0.325E-07
RMM:   3    -0.369254870517E+02   -0.13983E-09    0.00000E+00   429   0.686E-06    0.756E-09
RMM:   4    -0.369254870520E+02   -0.29286E-09    0.00000E+00   214   0.686E-06    0.236E-09
RMM:   5    -0.369254870519E+02    0.91177E-10    0.00000E+00   410   0.686E-06
   9 F= -.36925487E+02 E0= -.36925422E+02  d E =-.124942E-09
       N       E                     dE             d eps       ncg     rms          rms(c)
DAV:   1    -0.369254870513E+02    0.65961E-09    0.58102E-09  3216   0.923E-06    0.143E-07
RMM:   2    -0.369254870518E+02   -0.53672E-09    0.00000E+00   107   0.265E-06    0.879E-08
RMM:   3    -0.369254870515E+02    0.30207E-09    0.00000E+00   201   0.258E-06    0.244E-09
RMM:   4    -0.369254870517E+02   -0.12551E-09    0.00000E+00   547   0.258E-06    0.717E-10
RMM:   5    -0.369254870519E+02   -0.19281E-09    0.00000E+00   269   0.258E-06    0.328E-10
RMM:   6    -0.369254870518E+02    0.83901E-10    0.00000E+00   359   0.258E-06
  10 F= -.36925487E+02 E0= -.36925422E+02  d E =0.993623E-10
       N       E                     dE             d eps       ncg     rms          rms(c)
DAV:   1    -0.369254870513E+02    0.58424E-09    0.58107E-09  3164   0.390E-06    0.552E-08
RMM:   2    -0.369254870519E+02   -0.60197E-09    0.00000E+00   142   0.131E-06    0.339E-08
RMM:   3    -0.369254870519E+02    0.10232E-11    0.00000E+00   132   0.132E-06    0.933E-10
RMM:   4    -0.369254870518E+02    0.98112E-10    0.00000E+00    71   0.132E-06    0.283E-10
RMM:   5    -0.369254870518E+02   -0.42064E-10    0.00000E+00   179   0.132E-06
  11 F= -.36925487E+02 E0= -.36925422E+02  d E =-.445652E-10
