<?xml version="1.0" encoding="ISO-8859-1"?>
<modeling>
 <generator>
  <i name="program" type="string">vasp </i>
  <i name="version" type="string">5.3.5  </i>
  <i name="subversion" type="string">31Mar14 (build Mar 02 2015 18:14:16) complex                          parallel </i>
  <i name="platform" type="string">LinuxIFC </i>
  <i name="date" type="string">2018 08 11 </i>
  <i name="time" type="string">01:40:45 </i>
 </generator>
 <incar>
  <i type="string" name="SYSTEM">  gr</i>
  <i type="string" name="PREC">accurate : accuracy</i>
  <i type="string" name="ALGO"> FAST.</i>
  <i type="int" name="NELM">   100</i>
  <i type="int" name="NELMDL">    -3</i>
  <i type="int" name="NELMIN">     5</i>
  <i type="int" name="IBRION">     1</i>
  <i name="EDIFF">      0.00000000</i>
  <i name="EDIFFG">     -0.00000100</i>
  <i type="int" name="NSW">   400</i>
  <i type="int" name="ISIF">     2</i>
  <i name="ENCUT">   2000.00000000</i>
  <i type="int" name="ISMEAR">     0</i>
  <i name="SIGMA">      0.05000000</i>
  <i type="int" name="NWRITE">     2</i>
  <i type="logical" name="LWAVE"> F  </i>
  <i type="logical" name="LCHARG"> F  </i>
  <i type="int" name="NELM">   100</i>
 </incar>
 <kpoints>
  <generation param="Gamma">
   <v type="int" name="divisions">      24       36        1 </v>
   <v name="usershift">      0.00000000       0.00000000       0.00000000 </v>
   <v name="genvec1">      0.04166667       0.00000000       0.00000000 </v>
   <v name="genvec2">      0.00000000       0.02777778       0.00000000 </v>
   <v name="genvec3">      0.00000000       0.00000000       1.00000000 </v>
   <v name="shift">      0.00000000       0.00000000       0.00000000 </v>
  </generation>
  <varray name="kpointlist" >
   <v>       0.00000000       0.00000000       0.00000000 </v>
   <v>       0.04166667       0.00000000       0.00000000 </v>
   <v>       0.08333333       0.00000000       0.00000000 </v>
   <v>       0.12500000       0.00000000       0.00000000 </v>
   <v>       0.16666667       0.00000000       0.00000000 </v>
   <v>       0.20833333       0.00000000       0.00000000 </v>
   <v>       0.25000000       0.00000000       0.00000000 </v>
   <v>       0.29166667       0.00000000       0.00000000 </v>
   <v>       0.33333333       0.00000000       0.00000000 </v>
   <v>       0.37500000       0.00000000       0.00000000 </v>
   <v>       0.41666667       0.00000000       0.00000000 </v>
   <v>       0.45833333       0.00000000       0.00000000 </v>
   <v>       0.50000000       0.00000000       0.00000000 </v>
   <v>       0.00000000       0.02777778       0.00000000 </v>
   <v>       0.04166667       0.02777778       0.00000000 </v>
   <v>       0.08333333       0.02777778       0.00000000 </v>
   <v>       0.12500000       0.02777778       0.00000000 </v>
   <v>       0.16666667       0.02777778       0.00000000 </v>
   <v>       0.20833333       0.02777778       0.00000000 </v>
   <v>       0.25000000       0.02777778       0.00000000 </v>
   <v>       0.29166667       0.02777778       0.00000000 </v>
   <v>       0.33333333       0.02777778       0.00000000 </v>
   <v>       0.37500000       0.02777778       0.00000000 </v>
   <v>       0.41666667       0.02777778       0.00000000 </v>
   <v>       0.45833333       0.02777778       0.00000000 </v>
   <v>       0.50000000       0.02777778       0.00000000 </v>
   <v>       0.00000000       0.05555556       0.00000000 </v>
   <v>       0.04166667       0.05555556       0.00000000 </v>
   <v>       0.08333333       0.05555556       0.00000000 </v>
   <v>       0.12500000       0.05555556       0.00000000 </v>
   <v>       0.16666667       0.05555556       0.00000000 </v>
   <v>       0.20833333       0.05555556       0.00000000 </v>
   <v>       0.25000000       0.05555556       0.00000000 </v>
   <v>       0.29166667       0.05555556       0.00000000 </v>
   <v>       0.33333333       0.05555556       0.00000000 </v>
   <v>       0.37500000       0.05555556       0.00000000 </v>
   <v>       0.41666667       0.05555556       0.00000000 </v>
   <v>       0.45833333       0.05555556       0.00000000 </v>
   <v>       0.50000000       0.05555556       0.00000000 </v>
   <v>       0.00000000       0.08333333       0.00000000 </v>
   <v>       0.04166667       0.08333333       0.00000000 </v>
   <v>       0.08333333       0.08333333       0.00000000 </v>
   <v>       0.12500000       0.08333333       0.00000000 </v>
   <v>       0.16666667       0.08333333       0.00000000 </v>
   <v>       0.20833333       0.08333333       0.00000000 </v>
   <v>       0.25000000       0.08333333       0.00000000 </v>
   <v>       0.29166667       0.08333333       0.00000000 </v>
   <v>       0.33333333       0.08333333       0.00000000 </v>
   <v>       0.37500000       0.08333333       0.00000000 </v>
   <v>       0.41666667       0.08333333       0.00000000 </v>
   <v>       0.45833333       0.08333333       0.00000000 </v>
   <v>       0.50000000       0.08333333       0.00000000 </v>
   <v>       0.00000000       0.11111111       0.00000000 </v>
   <v>       0.04166667       0.11111111       0.00000000 </v>
   <v>       0.08333333       0.11111111       0.00000000 </v>
   <v>       0.12500000       0.11111111       0.00000000 </v>
   <v>       0.16666667       0.11111111       0.00000000 </v>
   <v>       0.20833333       0.11111111       0.00000000 </v>
   <v>       0.25000000       0.11111111       0.00000000 </v>
   <v>       0.29166667       0.11111111       0.00000000 </v>
   <v>       0.33333333       0.11111111       0.00000000 </v>
   <v>       0.37500000       0.11111111       0.00000000 </v>
   <v>       0.41666667       0.11111111       0.00000000 </v>
   <v>       0.45833333       0.11111111       0.00000000 </v>
   <v>       0.50000000       0.11111111       0.00000000 </v>
   <v>       0.00000000       0.13888889       0.00000000 </v>
   <v>       0.04166667       0.13888889       0.00000000 </v>
   <v>       0.08333333       0.13888889       0.00000000 </v>
   <v>       0.12500000       0.13888889       0.00000000 </v>
   <v>       0.16666667       0.13888889       0.00000000 </v>
   <v>       0.20833333       0.13888889       0.00000000 </v>
   <v>       0.25000000       0.13888889       0.00000000 </v>
   <v>       0.29166667       0.13888889       0.00000000 </v>
   <v>       0.33333333       0.13888889       0.00000000 </v>
   <v>       0.37500000       0.13888889       0.00000000 </v>
   <v>       0.41666667       0.13888889       0.00000000 </v>
   <v>       0.45833333       0.13888889       0.00000000 </v>
   <v>       0.50000000       0.13888889       0.00000000 </v>
   <v>       0.00000000       0.16666667       0.00000000 </v>
   <v>       0.04166667       0.16666667       0.00000000 </v>
   <v>       0.08333333       0.16666667       0.00000000 </v>
   <v>       0.12500000       0.16666667       0.00000000 </v>
   <v>       0.16666667       0.16666667       0.00000000 </v>
   <v>       0.20833333       0.16666667       0.00000000 </v>
   <v>       0.25000000       0.16666667       0.00000000 </v>
   <v>       0.29166667       0.16666667       0.00000000 </v>
   <v>       0.33333333       0.16666667       0.00000000 </v>
   <v>       0.37500000       0.16666667       0.00000000 </v>
   <v>       0.41666667       0.16666667       0.00000000 </v>
   <v>       0.45833333       0.16666667       0.00000000 </v>
   <v>       0.50000000       0.16666667       0.00000000 </v>
   <v>       0.00000000       0.19444444       0.00000000 </v>
   <v>       0.04166667       0.19444444       0.00000000 </v>
   <v>       0.08333333       0.19444444       0.00000000 </v>
   <v>       0.12500000       0.19444444       0.00000000 </v>
   <v>       0.16666667       0.19444444       0.00000000 </v>
   <v>       0.20833333       0.19444444       0.00000000 </v>
   <v>       0.25000000       0.19444444       0.00000000 </v>
   <v>       0.29166667       0.19444444       0.00000000 </v>
   <v>       0.33333333       0.19444444       0.00000000 </v>
   <v>       0.37500000       0.19444444       0.00000000 </v>
   <v>       0.41666667       0.19444444       0.00000000 </v>
   <v>       0.45833333       0.19444444       0.00000000 </v>
   <v>       0.50000000       0.19444444       0.00000000 </v>
   <v>       0.00000000       0.22222222       0.00000000 </v>
   <v>       0.04166667       0.22222222       0.00000000 </v>
   <v>       0.08333333       0.22222222       0.00000000 </v>
   <v>       0.12500000       0.22222222       0.00000000 </v>
   <v>       0.16666667       0.22222222       0.00000000 </v>
   <v>       0.20833333       0.22222222       0.00000000 </v>
   <v>       0.25000000       0.22222222       0.00000000 </v>
   <v>       0.29166667       0.22222222       0.00000000 </v>
   <v>       0.33333333       0.22222222       0.00000000 </v>
   <v>       0.37500000       0.22222222       0.00000000 </v>
   <v>       0.41666667       0.22222222       0.00000000 </v>
   <v>       0.45833333       0.22222222       0.00000000 </v>
   <v>       0.50000000       0.22222222       0.00000000 </v>
   <v>       0.00000000       0.25000000       0.00000000 </v>
   <v>       0.04166667       0.25000000       0.00000000 </v>
   <v>       0.08333333       0.25000000       0.00000000 </v>
   <v>       0.12500000       0.25000000       0.00000000 </v>
   <v>       0.16666667       0.25000000       0.00000000 </v>
   <v>       0.20833333       0.25000000       0.00000000 </v>
   <v>       0.25000000       0.25000000       0.00000000 </v>
   <v>       0.29166667       0.25000000       0.00000000 </v>
   <v>       0.33333333       0.25000000       0.00000000 </v>
   <v>       0.37500000       0.25000000       0.00000000 </v>
   <v>       0.41666667       0.25000000       0.00000000 </v>
   <v>       0.45833333       0.25000000       0.00000000 </v>
   <v>       0.50000000       0.25000000       0.00000000 </v>
   <v>       0.00000000       0.27777778       0.00000000 </v>
   <v>       0.04166667       0.27777778       0.00000000 </v>
   <v>       0.08333333       0.27777778       0.00000000 </v>
   <v>       0.12500000       0.27777778       0.00000000 </v>
   <v>       0.16666667       0.27777778       0.00000000 </v>
   <v>       0.20833333       0.27777778       0.00000000 </v>
   <v>       0.25000000       0.27777778       0.00000000 </v>
   <v>       0.29166667       0.27777778       0.00000000 </v>
   <v>       0.33333333       0.27777778       0.00000000 </v>
   <v>       0.37500000       0.27777778       0.00000000 </v>
   <v>       0.41666667       0.27777778       0.00000000 </v>
   <v>       0.45833333       0.27777778       0.00000000 </v>
   <v>       0.50000000       0.27777778       0.00000000 </v>
   <v>       0.00000000       0.30555556       0.00000000 </v>
   <v>       0.04166667       0.30555556       0.00000000 </v>
   <v>       0.08333333       0.30555556       0.00000000 </v>
   <v>       0.12500000       0.30555556       0.00000000 </v>
   <v>       0.16666667       0.30555556       0.00000000 </v>
   <v>       0.20833333       0.30555556       0.00000000 </v>
   <v>       0.25000000       0.30555556       0.00000000 </v>
   <v>       0.29166667       0.30555556       0.00000000 </v>
   <v>       0.33333333       0.30555556       0.00000000 </v>
   <v>       0.37500000       0.30555556       0.00000000 </v>
   <v>       0.41666667       0.30555556       0.00000000 </v>
   <v>       0.45833333       0.30555556       0.00000000 </v>
   <v>       0.50000000       0.30555556       0.00000000 </v>
   <v>       0.00000000       0.33333333       0.00000000 </v>
   <v>       0.04166667       0.33333333       0.00000000 </v>
   <v>       0.08333333       0.33333333       0.00000000 </v>
   <v>       0.12500000       0.33333333       0.00000000 </v>
   <v>       0.16666667       0.33333333       0.00000000 </v>
   <v>       0.20833333       0.33333333       0.00000000 </v>
   <v>       0.25000000       0.33333333       0.00000000 </v>
   <v>       0.29166667       0.33333333       0.00000000 </v>
   <v>       0.33333333       0.33333333       0.00000000 </v>
   <v>       0.37500000       0.33333333       0.00000000 </v>
   <v>       0.41666667       0.33333333       0.00000000 </v>
   <v>       0.45833333       0.33333333       0.00000000 </v>
   <v>       0.50000000       0.33333333       0.00000000 </v>
   <v>       0.00000000       0.36111111       0.00000000 </v>
   <v>       0.04166667       0.36111111       0.00000000 </v>
   <v>       0.08333333       0.36111111       0.00000000 </v>
   <v>       0.12500000       0.36111111       0.00000000 </v>
   <v>       0.16666667       0.36111111       0.00000000 </v>
   <v>       0.20833333       0.36111111       0.00000000 </v>
   <v>       0.25000000       0.36111111       0.00000000 </v>
   <v>       0.29166667       0.36111111       0.00000000 </v>
   <v>       0.33333333       0.36111111       0.00000000 </v>
   <v>       0.37500000       0.36111111       0.00000000 </v>
   <v>       0.41666667       0.36111111       0.00000000 </v>
   <v>       0.45833333       0.36111111       0.00000000 </v>
   <v>       0.50000000       0.36111111       0.00000000 </v>
   <v>       0.00000000       0.38888889       0.00000000 </v>
   <v>       0.04166667       0.38888889       0.00000000 </v>
   <v>       0.08333333       0.38888889       0.00000000 </v>
   <v>       0.12500000       0.38888889       0.00000000 </v>
   <v>       0.16666667       0.38888889       0.00000000 </v>
   <v>       0.20833333       0.38888889       0.00000000 </v>
   <v>       0.25000000       0.38888889       0.00000000 </v>
   <v>       0.29166667       0.38888889       0.00000000 </v>
   <v>       0.33333333       0.38888889       0.00000000 </v>
   <v>       0.37500000       0.38888889       0.00000000 </v>
   <v>       0.41666667       0.38888889       0.00000000 </v>
   <v>       0.45833333       0.38888889       0.00000000 </v>
   <v>       0.50000000       0.38888889       0.00000000 </v>
   <v>       0.00000000       0.41666667       0.00000000 </v>
   <v>       0.04166667       0.41666667       0.00000000 </v>
   <v>       0.08333333       0.41666667       0.00000000 </v>
   <v>       0.12500000       0.41666667       0.00000000 </v>
   <v>       0.16666667       0.41666667       0.00000000 </v>
   <v>       0.20833333       0.41666667       0.00000000 </v>
   <v>       0.25000000       0.41666667       0.00000000 </v>
   <v>       0.29166667       0.41666667       0.00000000 </v>
   <v>       0.33333333       0.41666667       0.00000000 </v>
   <v>       0.37500000       0.41666667       0.00000000 </v>
   <v>       0.41666667       0.41666667       0.00000000 </v>
   <v>       0.45833333       0.41666667       0.00000000 </v>
   <v>       0.50000000       0.41666667       0.00000000 </v>
   <v>       0.00000000       0.44444444       0.00000000 </v>
   <v>       0.04166667       0.44444444       0.00000000 </v>
   <v>       0.08333333       0.44444444       0.00000000 </v>
   <v>       0.12500000       0.44444444       0.00000000 </v>
   <v>       0.16666667       0.44444444       0.00000000 </v>
   <v>       0.20833333       0.44444444       0.00000000 </v>
   <v>       0.25000000       0.44444444       0.00000000 </v>
   <v>       0.29166667       0.44444444       0.00000000 </v>
   <v>       0.33333333       0.44444444       0.00000000 </v>
   <v>       0.37500000       0.44444444       0.00000000 </v>
   <v>       0.41666667       0.44444444       0.00000000 </v>
   <v>       0.45833333       0.44444444       0.00000000 </v>
   <v>       0.50000000       0.44444444       0.00000000 </v>
   <v>       0.00000000       0.47222222       0.00000000 </v>
   <v>       0.04166667       0.47222222       0.00000000 </v>
   <v>       0.08333333       0.47222222       0.00000000 </v>
   <v>       0.12500000       0.47222222       0.00000000 </v>
   <v>       0.16666667       0.47222222       0.00000000 </v>
   <v>       0.20833333       0.47222222       0.00000000 </v>
   <v>       0.25000000       0.47222222       0.00000000 </v>
   <v>       0.29166667       0.47222222       0.00000000 </v>
   <v>       0.33333333       0.47222222       0.00000000 </v>
   <v>       0.37500000       0.47222222       0.00000000 </v>
   <v>       0.41666667       0.47222222       0.00000000 </v>
   <v>       0.45833333       0.47222222       0.00000000 </v>
   <v>       0.50000000       0.47222222       0.00000000 </v>
   <v>       0.00000000       0.50000000       0.00000000 </v>
   <v>       0.04166667       0.50000000       0.00000000 </v>
   <v>       0.08333333       0.50000000       0.00000000 </v>
   <v>       0.12500000       0.50000000       0.00000000 </v>
   <v>       0.16666667       0.50000000       0.00000000 </v>
   <v>       0.20833333       0.50000000       0.00000000 </v>
   <v>       0.25000000       0.50000000       0.00000000 </v>
   <v>       0.29166667       0.50000000       0.00000000 </v>
   <v>       0.33333333       0.50000000       0.00000000 </v>
   <v>       0.37500000       0.50000000       0.00000000 </v>
   <v>       0.41666667       0.50000000       0.00000000 </v>
   <v>       0.45833333       0.50000000       0.00000000 </v>
   <v>       0.50000000       0.50000000       0.00000000 </v>
  </varray>
  <varray name="weights" >
   <v>       0.00115741 </v>
   <v>       0.00231481 </v>
   <v>       0.00231481 </v>
   <v>       0.00231481 </v>
   <v>       0.00231481 </v>
   <v>       0.00231481 </v>
   <v>       0.00231481 </v>
   <v>       0.00231481 </v>
   <v>       0.00231481 </v>
   <v>       0.00231481 </v>
   <v>       0.00231481 </v>
   <v>       0.00231481 </v>
   <v>       0.00115741 </v>
   <v>       0.00231481 </v>
   <v>       0.00462963 </v>
   <v>       0.00462963 </v>
   <v>       0.00462963 </v>
   <v>       0.00462963 </v>
   <v>       0.00462963 </v>
   <v>       0.00462963 </v>
   <v>       0.00462963 </v>
   <v>       0.00462963 </v>
   <v>       0.00462963 </v>
   <v>       0.00462963 </v>
   <v>       0.00462963 </v>
   <v>       0.00231481 </v>
   <v>       0.00231481 </v>
   <v>       0.00462963 </v>
   <v>       0.00462963 </v>
   <v>       0.00462963 </v>
   <v>       0.00462963 </v>
   <v>       0.00462963 </v>
   <v>       0.00462963 </v>
   <v>       0.00462963 </v>
   <v>       0.00462963 </v>
   <v>       0.00462963 </v>
   <v>       0.00462963 </v>
   <v>       0.00462963 </v>
   <v>       0.00231481 </v>
   <v>       0.00231481 </v>
   <v>       0.00462963 </v>
   <v>       0.00462963 </v>
   <v>       0.00462963 </v>
   <v>       0.00462963 </v>
   <v>       0.00462963 </v>
   <v>       0.00462963 </v>
   <v>       0.00462963 </v>
   <v>       0.00462963 </v>
   <v>       0.00462963 </v>
   <v>       0.00462963 </v>
   <v>       0.00462963 </v>
   <v>       0.00231481 </v>
   <v>       0.00231481 </v>
   <v>       0.00462963 </v>
   <v>       0.00462963 </v>
   <v>       0.00462963 </v>
   <v>       0.00462963 </v>
   <v>       0.00462963 </v>
   <v>       0.00462963 </v>
   <v>       0.00462963 </v>
   <v>       0.00462963 </v>
   <v>       0.00462963 </v>
   <v>       0.00462963 </v>
   <v>       0.00462963 </v>
   <v>       0.00231481 </v>
   <v>       0.00231481 </v>
   <v>       0.00462963 </v>
   <v>       0.00462963 </v>
   <v>       0.00462963 </v>
   <v>       0.00462963 </v>
   <v>       0.00462963 </v>
   <v>       0.00462963 </v>
   <v>       0.00462963 </v>
   <v>       0.00462963 </v>
   <v>       0.00462963 </v>
   <v>       0.00462963 </v>
   <v>       0.00462963 </v>
   <v>       0.00231481 </v>
   <v>       0.00231481 </v>
   <v>       0.00462963 </v>
   <v>       0.00462963 </v>
   <v>       0.00462963 </v>
   <v>       0.00462963 </v>
   <v>       0.00462963 </v>
   <v>       0.00462963 </v>
   <v>       0.00462963 </v>
   <v>       0.00462963 </v>
   <v>       0.00462963 </v>
   <v>       0.00462963 </v>
   <v>       0.00462963 </v>
   <v>       0.00231481 </v>
   <v>       0.00231481 </v>
   <v>       0.00462963 </v>
   <v>       0.00462963 </v>
   <v>       0.00462963 </v>
   <v>       0.00462963 </v>
   <v>       0.00462963 </v>
   <v>       0.00462963 </v>
   <v>       0.00462963 </v>
   <v>       0.00462963 </v>
   <v>       0.00462963 </v>
   <v>       0.00462963 </v>
   <v>       0.00462963 </v>
   <v>       0.00231481 </v>
   <v>       0.00231481 </v>
   <v>       0.00462963 </v>
   <v>       0.00462963 </v>
   <v>       0.00462963 </v>
   <v>       0.00462963 </v>
   <v>       0.00462963 </v>
   <v>       0.00462963 </v>
   <v>       0.00462963 </v>
   <v>       0.00462963 </v>
   <v>       0.00462963 </v>
   <v>       0.00462963 </v>
   <v>       0.00462963 </v>
   <v>       0.00231481 </v>
   <v>       0.00231481 </v>
   <v>       0.00462963 </v>
   <v>       0.00462963 </v>
   <v>       0.00462963 </v>
   <v>       0.00462963 </v>
   <v>       0.00462963 </v>
   <v>       0.00462963 </v>
   <v>       0.00462963 </v>
   <v>       0.00462963 </v>
   <v>       0.00462963 </v>
   <v>       0.00462963 </v>
   <v>       0.00462963 </v>
   <v>       0.00231481 </v>
   <v>       0.00231481 </v>
   <v>       0.00462963 </v>
   <v>       0.00462963 </v>
   <v>       0.00462963 </v>
   <v>       0.00462963 </v>
   <v>       0.00462963 </v>
   <v>       0.00462963 </v>
   <v>       0.00462963 </v>
   <v>       0.00462963 </v>
   <v>       0.00462963 </v>
   <v>       0.00462963 </v>
   <v>       0.00462963 </v>
   <v>       0.00231481 </v>
   <v>       0.00231481 </v>
   <v>       0.00462963 </v>
   <v>       0.00462963 </v>
   <v>       0.00462963 </v>
   <v>       0.00462963 </v>
   <v>       0.00462963 </v>
   <v>       0.00462963 </v>
   <v>       0.00462963 </v>
   <v>       0.00462963 </v>
   <v>       0.00462963 </v>
   <v>       0.00462963 </v>
   <v>       0.00462963 </v>
   <v>       0.00231481 </v>
   <v>       0.00231481 </v>
   <v>       0.00462963 </v>
   <v>       0.00462963 </v>
   <v>       0.00462963 </v>
   <v>       0.00462963 </v>
   <v>       0.00462963 </v>
   <v>       0.00462963 </v>
   <v>       0.00462963 </v>
   <v>       0.00462963 </v>
   <v>       0.00462963 </v>
   <v>       0.00462963 </v>
   <v>       0.00462963 </v>
   <v>       0.00231481 </v>
   <v>       0.00231481 </v>
   <v>       0.00462963 </v>
   <v>       0.00462963 </v>
   <v>       0.00462963 </v>
   <v>       0.00462963 </v>
   <v>       0.00462963 </v>
   <v>       0.00462963 </v>
   <v>       0.00462963 </v>
   <v>       0.00462963 </v>
   <v>       0.00462963 </v>
   <v>       0.00462963 </v>
   <v>       0.00462963 </v>
   <v>       0.00231481 </v>
   <v>       0.00231481 </v>
   <v>       0.00462963 </v>
   <v>       0.00462963 </v>
   <v>       0.00462963 </v>
   <v>       0.00462963 </v>
   <v>       0.00462963 </v>
   <v>       0.00462963 </v>
   <v>       0.00462963 </v>
   <v>       0.00462963 </v>
   <v>       0.00462963 </v>
   <v>       0.00462963 </v>
   <v>       0.00462963 </v>
   <v>       0.00231481 </v>
   <v>       0.00231481 </v>
   <v>       0.00462963 </v>
   <v>       0.00462963 </v>
   <v>       0.00462963 </v>
   <v>       0.00462963 </v>
   <v>       0.00462963 </v>
   <v>       0.00462963 </v>
   <v>       0.00462963 </v>
   <v>       0.00462963 </v>
   <v>       0.00462963 </v>
   <v>       0.00462963 </v>
   <v>       0.00462963 </v>
   <v>       0.00231481 </v>
   <v>       0.00231481 </v>
   <v>       0.00462963 </v>
   <v>       0.00462963 </v>
   <v>       0.00462963 </v>
   <v>       0.00462963 </v>
   <v>       0.00462963 </v>
   <v>       0.00462963 </v>
   <v>       0.00462963 </v>
   <v>       0.00462963 </v>
   <v>       0.00462963 </v>
   <v>       0.00462963 </v>
   <v>       0.00462963 </v>
   <v>       0.00231481 </v>
   <v>       0.00231481 </v>
   <v>       0.00462963 </v>
   <v>       0.00462963 </v>
   <v>       0.00462963 </v>
   <v>       0.00462963 </v>
   <v>       0.00462963 </v>
   <v>       0.00462963 </v>
   <v>       0.00462963 </v>
   <v>       0.00462963 </v>
   <v>       0.00462963 </v>
   <v>       0.00462963 </v>
   <v>       0.00462963 </v>
   <v>       0.00231481 </v>
   <v>       0.00115741 </v>
   <v>       0.00231481 </v>
   <v>       0.00231481 </v>
   <v>       0.00231481 </v>
   <v>       0.00231481 </v>
   <v>       0.00231481 </v>
   <v>       0.00231481 </v>
   <v>       0.00231481 </v>
   <v>       0.00231481 </v>
   <v>       0.00231481 </v>
   <v>       0.00231481 </v>
   <v>       0.00231481 </v>
   <v>       0.00115741 </v>
  </varray>
 </kpoints>
 <parameters>
  <separator name="general" >
   <i type="string" name="SYSTEM">gr</i>
   <i type="logical" name="LCOMPAT"> F  </i>
  </separator>
  <separator name="electronic" >
   <i type="string" name="PREC">accura</i>
   <i name="ENMAX">   2000.00000000</i>
   <i name="ENAUG">    644.87300000</i>
   <i name="EDIFF">      0.00000000</i>
   <i type="int" name="IALGO">    68</i>
   <i type="int" name="IWAVPR">    11</i>
   <i type="int" name="NBANDS">    12</i>
   <i name="NELECT">     16.00000000</i>
   <i type="int" name="TURBO">     0</i>
   <i type="int" name="IRESTART">     0</i>
   <i type="int" name="NREBOOT">     0</i>
   <i type="int" name="NMIN">     0</i>
   <i name="EREF">      0.00000000</i>
   <separator name="electronic smearing" >
    <i type="int" name="ISMEAR">     0</i>
    <i name="SIGMA">      0.05000000</i>
    <i name="KSPACING">      0.50000000</i>
    <i type="logical" name="KGAMMA"> T  </i>
   </separator>
   <separator name="electronic projectors" >
    <i type="logical" name="LREAL"> F  </i>
    <v name="ROPT">      0.00000000</v>
    <i type="int" name="LMAXPAW">  -100</i>
    <i type="int" name="LMAXMIX">     2</i>
    <i type="logical" name="NLSPLINE"> F  </i>
   </separator>
   <separator name="electronic startup" >
    <i type="int" name="ISTART">     0</i>
    <i type="int" name="ICHARG">     2</i>
    <i type="int" name="INIWAV">     1</i>
   </separator>
   <separator name="electronic spin" >
    <i type="int" name="ISPIN">     1</i>
    <i type="logical" name="LNONCOLLINEAR"> F  </i>
    <v name="MAGMOM">      1.00000000      1.00000000      1.00000000      1.00000000</v>
    <i name="NUPDOWN">     -1.00000000</i>
    <i type="logical" name="LSORBIT"> F  </i>
    <v name="SAXIS">      0.00000000      0.00000000      1.00000000</v>
    <i type="logical" name="LSPIRAL"> F  </i>
    <v name="QSPIRAL">      0.00000000      0.00000000      0.00000000</v>
    <i type="logical" name="LZEROZ"> F  </i>
   </separator>
   <separator name="electronic exchange-correlation" >
    <i type="logical" name="LASPH"> F  </i>
    <i type="logical" name="LMETAGGA"> F  </i>
   </separator>
   <separator name="electronic convergence" >
    <i type="int" name="NELM">   100</i>
    <i type="int" name="NELMDL">    -3</i>
    <i type="int" name="NELMIN">     5</i>
    <i name="ENINI">   2000.00000000</i>
    <separator name="electronic convergence detail" >
     <i type="logical" name="LDIAG"> T  </i>
     <i type="logical" name="LSUBROT"> F  </i>
     <i name="WEIMIN">      0.00100000</i>
     <i name="EBREAK">      0.00000000</i>
     <i name="DEPER">      0.30000000</i>
     <i type="int" name="NRMM">     4</i>
     <i name="TIME">      0.40000000</i>
    </separator>
   </separator>
   <separator name="electronic mixer" >
    <i name="AMIX">      0.40000000</i>
    <i name="BMIX">      1.00000000</i>
    <i name="AMIN">      0.10000000</i>
    <i name="AMIX_MAG">      1.60000000</i>
    <i name="BMIX_MAG">      1.00000000</i>
    <separator name="electronic mixer details" >
     <i type="int" name="IMIX">     4</i>
     <i type="int" name="MAXMIX">   -45</i>
     <i name="WC">    100.00000000</i>
     <i type="int" name="INIMIX">     1</i>
     <i type="int" name="MIXPRE">     1</i>
     <i type="int" name="MREMOVE">     5</i>
    </separator>
   </separator>
   <separator name="electronic dipolcorrection" >
    <i type="logical" name="LDIPOL"> F  </i>
    <i type="logical" name="LMONO"> F  </i>
    <i type="int" name="IDIPOL">     0</i>
    <i name="EPSILON">      1.00000000</i>
    <v name="DIPOL">   -100.00000000   -100.00000000   -100.00000000</v>
    <i name="EFIELD">      0.00000000</i>
   </separator>
  </separator>
  <separator name="grids" >
   <i type="int" name="NGX">    64</i>
   <i type="int" name="NGY">    36</i>
   <i type="int" name="NGZ">   294</i>
   <i type="int" name="NGXF">   128</i>
   <i type="int" name="NGYF">    72</i>
   <i type="int" name="NGZF">   588</i>
   <i type="logical" name="ADDGRID"> F  </i>
  </separator>
  <separator name="ionic" >
   <i type="int" name="NSW">   400</i>
   <i type="int" name="IBRION">     1</i>
   <i type="int" name="ISIF">     2</i>
   <i name="PSTRESS">      0.00000000</i>
   <i name="EDIFFG">     -0.00000100</i>
   <i type="int" name="NFREE">     0</i>
   <i name="POTIM">      0.50000000</i>
   <i name="SMASS">     -3.00000000</i>
   <i name="SCALEE">      1.00000000</i>
  </separator>
  <separator name="ionic md" >
   <i name="TEBEG">      0.00010000</i>
   <i name="TEEND">      0.00010000</i>
   <i type="int" name="NBLOCK">     1</i>
   <i type="int" name="KBLOCK">   400</i>
   <i type="int" name="NPACO">   256</i>
   <i name="APACO">     16.00000000</i>
  </separator>
  <separator name="symmetry" >
   <i type="int" name="ISYM">     2</i>
   <i name="SYMPREC">      0.00001000</i>
  </separator>
  <separator name="dos" >
   <i type="logical" name="LORBIT"> F  </i>
   <v name="RWIGS">     -1.00000000</v>
   <i type="int" name="NEDOS">   301</i>
   <i name="EMIN">     10.00000000</i>
   <i name="EMAX">    -10.00000000</i>
   <i name="EFERMI">      0.00000000</i>
  </separator>
  <separator name="writing" >
   <i type="int" name="NWRITE">     2</i>
   <i type="logical" name="LWAVE"> F  </i>
   <i type="logical" name="LCHARG"> F  </i>
   <i type="logical" name="LPARD"> F  </i>
   <i type="logical" name="LVTOT"> F  </i>
   <i type="logical" name="LVHAR"> F  </i>
   <i type="logical" name="LELF"> F  </i>
   <i type="logical" name="LOPTICS"> F  </i>
   <v name="STM">      0.00000000      0.00000000      0.00000000      0.00000000      0.00000000      0.00000000      0.00000000</v>
  </separator>
  <separator name="performance" >
   <i type="int" name="NPAR">     4</i>
   <i type="int" name="NSIM">     4</i>
   <i type="int" name="NBLK">    -1</i>
   <i type="logical" name="LPLANE"> T  </i>
   <i type="logical" name="LSCALAPACK"> F  </i>
   <i type="logical" name="LSCAAWARE"> F  </i>
   <i type="logical" name="LSCALU"> F  </i>
   <i type="logical" name="LASYNC"> F  </i>
   <i type="logical" name="LORBITALREAL"> F  </i>
  </separator>
  <separator name="miscellaneous" >
   <i type="int" name="IDIOT">     3</i>
   <i type="logical" name="LMUSIC"> F  </i>
   <v name="POMASS">     12.01100000</v>
   <v name="DARWINR">      0.00000000</v>
   <v name="DARWINV">      1.00000000</v>
   <i type="logical" name="LCORR"> T  </i>
  </separator>
  <i type="logical" name="GGA_COMPAT"> T  </i>
  <i type="logical" name="LBERRY"> F  </i>
  <i type="int" name="ICORELEVEL">     0</i>
  <i type="logical" name="LDAU"> F  </i>
  <i type="int" name="I_CONSTRAINED_M">     0</i>
  <separator name="electronic exchange-correlation" >
   <i type="string" name="GGA">--</i>
   <i type="int" name="VOSKOWN">     0</i>
   <i type="logical" name="LHFCALC"> F  </i>
   <i type="string" name="PRECFOCK"></i>
   <i type="logical" name="LSYMGRAD"> F  </i>
   <i type="logical" name="LHFONE"> F  </i>
   <i type="logical" name="LRHFCALC"> F  </i>
   <i type="logical" name="LTHOMAS"> F  </i>
   <i type="logical" name="LMODELHF"> F  </i>
   <i name="ENCUT4O">     -1.00000000</i>
   <i type="int" name="EXXOEP">     0</i>
   <i type="int" name="FOURORBIT">     0</i>
   <i name="AEXX">      0.00000000</i>
   <i name="HFALPHA">      0.00000000</i>
   <i name="MCALPHA">      0.00000000</i>
   <i name="ALDAX">      1.00000000</i>
   <i name="AGGAX">      1.00000000</i>
   <i name="ALDAC">      1.00000000</i>
   <i name="AGGAC">      1.00000000</i>
   <i type="int" name="NKREDX">     1</i>
   <i type="int" name="NKREDY">     1</i>
   <i type="int" name="NKREDZ">     1</i>
   <i type="logical" name="SHIFTRED"> F  </i>
   <i type="logical" name="ODDONLY"> F  </i>
   <i type="logical" name="EVENONLY"> F  </i>
   <i type="int" name="LMAXFOCK">     0</i>
   <i type="int" name="NMAXFOCKAE">     0</i>
   <i type="logical" name="LFOCKAEDFT"> F  </i>
   <i name="HFSCREEN">      0.00000000</i>
   <i name="HFSCREENC">      0.00000000</i>
   <i type="int" name="NBANDSGWLOW">     0</i>
  </separator>
  <separator name="vdW DFT" >
   <i type="logical" name="LUSE_VDW"> F  </i>
   <i name="Zab_VDW">     -0.84910000</i>
   <i name="PARAM1">      0.12340000</i>
   <i name="PARAM2">      1.00000000</i>
   <i name="PARAM3">      0.00000000</i>
  </separator>
  <separator name="model GW" >
   <i type="int" name="MODEL_GW">     0</i>
   <i name="MODEL_EPS0">     31.62568521</i>
   <i name="MODEL_ALPHA">      1.00000000</i>
  </separator>
  <separator name="linear response parameters" >
   <i type="logical" name="LEPSILON"> F  </i>
   <i type="logical" name="LRPA"> F  </i>
   <i type="logical" name="LNABLA"> F  </i>
   <i type="logical" name="LVEL"> F  </i>
   <i type="int" name="KINTER">     0</i>
   <i name="CSHIFT">      0.10000000</i>
   <i name="OMEGAMAX">     -1.00000000</i>
   <i name="DEG_THRESHOLD">      0.00200000</i>
  </separator>
  <separator name="orbital magnetization" >
   <i type="logical" name="NUCIND"> F  </i>
   <v name="MAGPOS">      0.00000000      0.00000000      0.00000000</v>
   <i type="logical" name="LNICSALL"> T  </i>
   <i type="logical" name="ORBITALMAG"> F  </i>
   <i type="logical" name="LMAGBLOCH"> F  </i>
   <i type="logical" name="LCHIMAG"> F  </i>
   <i type="logical" name="LGAUGE"> T  </i>
   <i type="int" name="MAGATOM">     0</i>
   <v name="MAGDIPOL">      0.00000000      0.00000000      0.00000000</v>
   <v name="AVECCONST">      0.00000000      0.00000000      0.00000000</v>
  </separator>
  <separator name="response functions" >
   <i type="logical" name="LADDER"> F  </i>
   <i type="logical" name="LFXC"> F  </i>
   <i type="logical" name="LHARTREE"> T  </i>
   <i type="int" name="IBSE">     0</i>
   <i type="logical" name="LTCTE"> F  </i>
   <i type="logical" name="LTETE"> F  </i>
   <i type="logical" name="LTRIPLET"> F  </i>
   <i type="logical" name="LFXCEPS"> F  </i>
   <i type="logical" name="LFXHEG"> F  </i>
   <i type="logical" name="L2ORDER"> F  </i>
   <i type="logical" name="LUSEW"> F  </i>
   <i name="ENCUTGW">     -2.00000000</i>
   <i name="ENCUTGWSOFT">     -2.00000000</i>
   <i name="ENCUTLF">     -1.00000000</i>
   <i type="int" name="LMAXMP2">    -1</i>
   <i name="SCISSOR">      0.00000000</i>
   <i type="int" name="NOMEGA">     0</i>
   <i type="int" name="NOMEGAR">     0</i>
   <i type="int" name="NBANDSGW">    -1</i>
   <i type="int" name="NBANDSO">    -1</i>
   <i type="int" name="NBANDSV">    -1</i>
   <i type="int" name="NELM">   100</i>
   <i type="int" name="DIM">     3</i>
   <i type="int" name="ANTIRES">     0</i>
   <i name="OMEGAMAX">    -30.00000000</i>
   <i name="OMEGAMIN">    -30.00000000</i>
   <i name="OMEGATL">   -200.00000000</i>
   <i type="int" name="OMEGAGRID">     0</i>
   <i name="CSHIFT">     -0.10000000</i>
   <i type="logical" name="SELFENERGY"> F  </i>
   <i type="logical" name="LSPECTRAL"> F  </i>
   <i type="logical" name="ODDONLYGW"> F  </i>
   <i type="logical" name="EVENONLYGW"> F  </i>
   <i type="int" name="NKREDLFX">     1</i>
   <i type="int" name="NKREDLFY">     1</i>
   <i type="int" name="NKREDLFZ">     1</i>
   <i type="int" name="MAXMEM">  1800</i>
   <i type="int" name="TELESCOPE">     0</i>
   <i type="int" name="TAUPAR">     1</i>
  </separator>
  <separator name="External order field" >
   <i name="OFIELD_KAPPA">      0.00000000</i>
   <v name="OFIELD_K">      0.00000000      0.00000000      0.00000000</v>
   <i name="OFIELD_Q6_NEAR">      0.00000000</i>
   <i name="OFIELD_Q6_FAR">      0.00000000</i>
   <i name="OFIELD_A">      0.00000000</i>
  </separator>
 </parameters>
 <atominfo>
  <atoms>       4 </atoms>
  <types>       1 </types>
  <array name="atoms" >
   <dimension dim="1">ion</dimension>
   <field type="string">element</field>
   <field type="int">atomtype</field>
   <set>
    <rc><c>C </c><c>   1</c></rc>
    <rc><c>C </c><c>   1</c></rc>
    <rc><c>C </c><c>   1</c></rc>
    <rc><c>C </c><c>   1</c></rc>
   </set>
  </array>
  <array name="atomtypes" >
   <dimension dim="1">type</dimension>
   <field type="int">atomspertype</field>
   <field type="string">element</field>
   <field>mass</field>
   <field>valence</field>
   <field type="string">pseudopotential</field>
   <set>
    <rc><c>   4</c><c>C </c><c>     12.01100000</c><c>      4.00000000</c><c> PAW_PBE C 08Apr2002                    </c></rc>
   </set>
  </array>
 </atominfo>
 <structure name="initialpos" >
  <crystal>
   <varray name="basis" >
    <v>       4.27376912       0.00000000       0.00000000 </v>
    <v>       0.00000000       2.46717589       0.00000000 </v>
    <v>       0.00000000       0.00000000      19.99574157 </v>
   </varray>
   <i name="volume">    210.83790140 </i>
   <varray name="rec_basis" >
    <v>       0.23398550       0.00000000       0.00000000 </v>
    <v>       0.00000000       0.40532173       0.00000000 </v>
    <v>       0.00000000       0.00000000       0.05001065 </v>
   </varray>
  </crystal>
  <varray name="positions" >
   <v>       0.00013158       0.00000000       0.00000000 </v>
   <v>       0.16653509       0.50000000       0.00000000 </v>
   <v>       0.50013158       0.50000000       0.00000000 </v>
   <v>       0.66653509       0.00000000       0.00000000 </v>
  </varray>
 </structure>
 <calculation>
  <scstep>
   <time name="dav">  297.77  298.80</time>
   <time name="total">  300.24  301.37</time>
   <energy>
    <i name="alphaZ">      6.18334092 </i>
    <i name="ewald">   2585.42058536 </i>
    <i name="hartreedc">  -3010.84413309 </i>
    <i name="XCdc">     55.09475016 </i>
    <i name="pawpsdc">    151.32577238 </i>
    <i name="pawaedc">   -155.92769107 </i>
    <i name="eentropy">     -0.00081507 </i>
    <i name="bandstr">    -28.83722707 </i>
    <i name="atom">    588.62352690 </i>
    <i name="e_fr_energy">    191.03810943 </i>
    <i name="e_wo_entrp">    191.03892450 </i>
    <i name="e_0_energy">    191.03851696 </i>
   </energy>
  </scstep>
  <scstep>
   <time name="dav">  449.37  449.61</time>
   <time name="total">  449.38  449.62</time>
   <energy>
    <i name="e_fr_energy">     -8.64079593 </i>
    <i name="e_wo_entrp">     -8.64030990 </i>
    <i name="e_0_energy">     -8.64055291 </i>
   </energy>
  </scstep>
  <scstep>
   <time name="dav">  348.17  348.33</time>
   <time name="total">  377.82  378.00</time>
   <energy>
    <i name="e_fr_energy">    -38.37183457 </i>
    <i name="e_wo_entrp">    -38.37183457 </i>
    <i name="e_0_energy">    -38.37183457 </i>
   </energy>
  </scstep>
  <scstep>
   <time name="diag">   79.95   79.99</time>
   <time name="diis">  328.15  328.28</time>
   <time name="orth">    3.07    3.07</time>
   <time name="total">  443.25  443.48</time>
   <energy>
    <i name="e_fr_energy">    -37.69862707 </i>
    <i name="e_wo_entrp">    -37.69862707 </i>
    <i name="e_0_energy">    -37.69862707 </i>
   </energy>
  </scstep>
  <scstep>
   <time name="diag">   79.95   79.96</time>
   <time name="diis">  326.68  326.76</time>
   <time name="orth">    3.09    3.10</time>
   <time name="total">  441.43  441.56</time>
   <energy>
    <i name="e_fr_energy">    -36.92320498 </i>
    <i name="e_wo_entrp">    -36.92320497 </i>
    <i name="e_0_energy">    -36.92320497 </i>
   </energy>
  </scstep>
  <scstep>
   <time name="diag">   80.00   80.01</time>
   <time name="diis">  351.66  351.72</time>
   <time name="orth">    3.09    3.09</time>
   <time name="total">  466.68  466.80</time>
   <energy>
    <i name="e_fr_energy">    -36.92377159 </i>
    <i name="e_wo_entrp">    -36.92377158 </i>
    <i name="e_0_energy">    -36.92377158 </i>
   </energy>
  </scstep>
  <scstep>
   <time name="diag">   79.99   80.00</time>
   <time name="diis">  326.33  326.96</time>
   <time name="orth">    3.07    3.08</time>
   <time name="total">  441.15  441.96</time>
   <energy>
    <i name="e_fr_energy">    -36.91417703 </i>
    <i name="e_wo_entrp">    -36.91417703 </i>
    <i name="e_0_energy">    -36.91417703 </i>
   </energy>
  </scstep>
  <scstep>
   <time name="diag">   79.67   79.97</time>
   <time name="diis">  327.84  327.95</time>
   <time name="orth">    3.10    3.10</time>
   <time name="total">  442.55  443.00</time>
   <energy>
    <i name="e_fr_energy">    -36.90822754 </i>
    <i name="e_wo_entrp">    -36.90822754 </i>
    <i name="e_0_energy">    -36.90822754 </i>
   </energy>
  </scstep>
  <scstep>
   <time name="diag">   79.88   79.90</time>
   <time name="diis">  323.19  323.25</time>
   <time name="orth">    3.10    3.10</time>
   <time name="total">  438.01  438.16</time>
   <energy>
    <i name="e_fr_energy">    -36.90788560 </i>
    <i name="e_wo_entrp">    -36.90788559 </i>
    <i name="e_0_energy">    -36.90788559 </i>
   </energy>
  </scstep>
  <scstep>
   <time name="diag">   79.83   79.85</time>
   <time name="diis">  323.64  323.95</time>
   <time name="orth">    3.08    3.08</time>
   <time name="total">  437.84  438.25</time>
   <energy>
    <i name="e_fr_energy">    -36.90772581 </i>
    <i name="e_wo_entrp">    -36.90772581 </i>
    <i name="e_0_energy">    -36.90772581 </i>
   </energy>
  </scstep>
  <scstep>
   <time name="diag">   79.93   79.95</time>
   <time name="diis">  326.68  326.75</time>
   <time name="orth">    3.10    3.10</time>
   <time name="total">  441.26  441.35</time>
   <energy>
    <i name="e_fr_energy">    -36.91032857 </i>
    <i name="e_wo_entrp">    -36.91032856 </i>
    <i name="e_0_energy">    -36.91032857 </i>
   </energy>
  </scstep>
  <scstep>
   <time name="diag">   79.83   79.85</time>
   <time name="diis">  325.67  325.77</time>
   <time name="orth">    3.10    3.10</time>
   <time name="total">  440.16  440.33</time>
   <energy>
    <i name="e_fr_energy">    -36.91728382 </i>
    <i name="e_wo_entrp">    -36.91715657 </i>
    <i name="e_0_energy">    -36.91722020 </i>
   </energy>
  </scstep>
  <scstep>
   <time name="diag">   79.90   79.93</time>
   <time name="diis">  337.27  337.50</time>
   <time name="orth">    3.08    3.08</time>
   <time name="total">  451.60  451.96</time>
   <energy>
    <i name="e_fr_energy">    -36.92493497 </i>
    <i name="e_wo_entrp">    -36.92480777 </i>
    <i name="e_0_energy">    -36.92487137 </i>
   </energy>
  </scstep>
  <scstep>
   <time name="diag">   79.56   79.95</time>
   <time name="diis">  320.72  322.33</time>
   <time name="orth">    3.08    3.10</time>
   <time name="total">  434.92  437.08</time>
   <energy>
    <i name="e_fr_energy">    -36.92523860 </i>
    <i name="e_wo_entrp">    -36.92511141 </i>
    <i name="e_0_energy">    -36.92517501 </i>
   </energy>
  </scstep>
  <scstep>
   <time name="diag">   79.86   80.02</time>
   <time name="diis">  324.44  324.51</time>
   <time name="orth">    3.08    3.08</time>
   <time name="total">  439.26  439.56</time>
   <energy>
    <i name="e_fr_energy">    -36.92537368 </i>
    <i name="e_wo_entrp">    -36.92524654 </i>
    <i name="e_0_energy">    -36.92531011 </i>
   </energy>
  </scstep>
  <scstep>
   <time name="diag">   79.89   79.90</time>
   <time name="diis">  325.08  325.18</time>
   <time name="orth">    3.08    3.08</time>
   <time name="total">  439.83  439.97</time>
   <energy>
    <i name="e_fr_energy">    -36.92539367 </i>
    <i name="e_wo_entrp">    -36.92526657 </i>
    <i name="e_0_energy">    -36.92533012 </i>
   </energy>
  </scstep>
  <scstep>
   <time name="diag">   79.88   79.89</time>
   <time name="diis">  323.83  323.90</time>
   <time name="orth">    3.08    3.08</time>
   <time name="total">  438.90  439.31</time>
   <energy>
    <i name="e_fr_energy">    -36.92541223 </i>
    <i name="e_wo_entrp">    -36.92528518 </i>
    <i name="e_0_energy">    -36.92534871 </i>
   </energy>
  </scstep>
  <scstep>
   <time name="diag">   79.88   79.90</time>
   <time name="diis">  328.37  328.43</time>
   <time name="orth">    3.09    3.09</time>
   <time name="total">  443.50  443.60</time>
   <energy>
    <i name="e_fr_energy">    -36.92541338 </i>
    <i name="e_wo_entrp">    -36.92528631 </i>
    <i name="e_0_energy">    -36.92534985 </i>
   </energy>
  </scstep>
  <scstep>
   <time name="diag">   79.90   79.93</time>
   <time name="diis">  323.22  323.76</time>
   <time name="orth">    3.10    3.10</time>
   <time name="total">  438.36  438.96</time>
   <energy>
    <i name="e_fr_energy">    -36.92541594 </i>
    <i name="e_wo_entrp">    -36.92528884 </i>
    <i name="e_0_energy">    -36.92535239 </i>
   </energy>
  </scstep>
  <scstep>
   <time name="diag">   79.86   79.88</time>
   <time name="diis">  323.18  323.32</time>
   <time name="orth">    3.08    3.08</time>
   <time name="total">  437.90  438.08</time>
   <energy>
    <i name="e_fr_energy">    -36.92541897 </i>
    <i name="e_wo_entrp">    -36.92529191 </i>
    <i name="e_0_energy">    -36.92535544 </i>
   </energy>
  </scstep>
  <scstep>
   <time name="diag">   79.86   79.90</time>
   <time name="diis">  327.04  327.12</time>
   <time name="orth">    3.10    3.10</time>
   <time name="total">  442.04  442.17</time>
   <energy>
    <i name="e_fr_energy">    -36.92541967 </i>
    <i name="e_wo_entrp">    -36.92529258 </i>
    <i name="e_0_energy">    -36.92535613 </i>
   </energy>
  </scstep>
  <scstep>
   <time name="diag">   79.86   79.88</time>
   <time name="diis">  321.84  321.94</time>
   <time name="orth">    3.07    3.08</time>
   <time name="total">  436.46  436.60</time>
   <energy>
    <i name="e_fr_energy">    -36.92541979 </i>
    <i name="e_wo_entrp">    -36.92529270 </i>
    <i name="e_0_energy">    -36.92535625 </i>
   </energy>
  </scstep>
  <scstep>
   <time name="diag">   79.83   79.85</time>
   <time name="diis">  275.38  275.66</time>
   <time name="orth">    3.07    3.08</time>
   <time name="total">  389.42  389.92</time>
   <energy>
    <i name="e_fr_energy">    -36.92541980 </i>
    <i name="e_wo_entrp">    -36.92529272 </i>
    <i name="e_0_energy">    -36.92535626 </i>
   </energy>
  </scstep>
  <scstep>
   <time name="diag">   79.38   79.77</time>
   <time name="diis">  236.84  238.03</time>
   <time name="orth">    3.07    3.09</time>
   <time name="total">  351.33  353.15</time>
   <energy>
    <i name="e_fr_energy">    -36.92541981 </i>
    <i name="e_wo_entrp">    -36.92529273 </i>
    <i name="e_0_energy">    -36.92535627 </i>
   </energy>
  </scstep>
  <scstep>
   <time name="diag">   79.42   79.82</time>
   <time name="diis">  218.57  219.25</time>
   <time name="orth">    3.07    3.10</time>
   <time name="total">  332.36  333.65</time>
   <energy>
    <i name="e_fr_energy">    -36.92541981 </i>
    <i name="e_wo_entrp">    -36.92529272 </i>
    <i name="e_0_energy">    -36.92535627 </i>
   </energy>
  </scstep>
  <scstep>
   <time name="diag">   79.77   79.83</time>
   <time name="diis">  215.97  216.03</time>
   <time name="orth">    3.10    3.10</time>
   <time name="total">  330.48  330.66</time>
   <energy>
    <i name="e_fr_energy">    -36.92541981 </i>
    <i name="e_wo_entrp">    -36.92529272 </i>
    <i name="e_0_energy">    -36.92535626 </i>
   </energy>
  </scstep>
  <scstep>
   <time name="diag">   79.41   79.82</time>
   <time name="diis">  198.41  199.23</time>
   <time name="orth">    3.07    3.08</time>
   <time name="total">  283.22  284.63</time>
   <energy>
    <i name="alphaZ">      6.18334092 </i>
    <i name="ewald">   2585.42058536 </i>
    <i name="hartreedc">  -3079.36930103 </i>
    <i name="XCdc">     57.51870084 </i>
    <i name="pawpsdc">    276.99461880 </i>
    <i name="pawaedc">   -282.14309628 </i>
    <i name="eentropy">     -0.00012709 </i>
    <i name="bandstr">   -190.15366823 </i>
    <i name="atom">    588.62352690 </i>
    <i name="e_fr_energy">    -36.92541981 </i>
    <i name="e_wo_entrp">    -36.92529272 </i>
    <i name="e_0_energy">    -36.92535626 </i>
   </energy>
  </scstep>
  <structure>
   <crystal>
    <varray name="basis" >
     <v>       4.27376912       0.00000000       0.00000000 </v>
     <v>       0.00000000       2.46717589       0.00000000 </v>
     <v>       0.00000000       0.00000000      19.99574157 </v>
    </varray>
    <i name="volume">    210.83790140 </i>
    <varray name="rec_basis" >
     <v>       0.23398550       0.00000000       0.00000000 </v>
     <v>       0.00000000       0.40532173       0.00000000 </v>
     <v>       0.00000000       0.00000000       0.05001065 </v>
    </varray>
   </crystal>
   <varray name="positions" >
    <v>       0.00013158       0.00000000       0.00000000 </v>
    <v>       0.16653509       0.50000000       0.00000000 </v>
    <v>       0.50013158       0.50000000       0.00000000 </v>
    <v>       0.66653509       0.00000000       0.00000000 </v>
   </varray>
  </structure>
  <varray name="forces" >
   <v>      -0.05898887      -0.00000000       0.00000000 </v>
   <v>       0.05898887       0.00000000       0.00000000 </v>
   <v>      -0.05898887       0.00000000       0.00000000 </v>
   <v>       0.05898887      -0.00000000       0.00000000 </v>
  </varray>
  <varray name="stress" >
   <v>      -0.32517209       0.00000000       0.00000000 </v>
   <v>       0.00000000       0.16494267       0.00000000 </v>
   <v>       0.00000000       0.00000000      -0.01011721 </v>
  </varray>
  <energy>
   <i name="e_fr_energy">    -36.92541981 </i>
   <i name="e_wo_entrp">    -36.92535626 </i>
   <i name="e_0_energy">     -0.00012709 </i>
  </energy>
  <time name="totalsc">11309.4411323.34</time>
 </calculation>
 <calculation>
  <scstep>
   <time name="dav">  325.82  327.89</time>
   <time name="total">  357.85  360.17</time>
   <energy>
    <i name="alphaZ">      6.18334092 </i>
    <i name="ewald">   2585.42379401 </i>
    <i name="hartreedc">  -3079.36959596 </i>
    <i name="XCdc">     57.51872206 </i>
    <i name="pawpsdc">    276.99461913 </i>
    <i name="pawaedc">   -282.14309661 </i>
    <i name="eentropy">     -0.00008399 </i>
    <i name="bandstr">   -190.15564485 </i>
    <i name="atom">    588.62352690 </i>
    <i name="e_fr_energy">    -36.92441838 </i>
    <i name="e_wo_entrp">    -36.92433439 </i>
    <i name="e_0_energy">    -36.92437639 </i>
   </energy>
  </scstep>
  <scstep>
   <time name="diag">   78.93   79.72</time>
   <time name="diis">  318.31  321.20</time>
   <time name="orth">    3.08    3.09</time>
   <time name="total">  432.99  437.00</time>
   <energy>
    <i name="e_fr_energy">    -36.92445936 </i>
    <i name="e_wo_entrp">    -36.92437219 </i>
    <i name="e_0_energy">    -36.92441578 </i>
   </energy>
  </scstep>
  <scstep>
   <time name="diag">   79.09   79.76</time>
   <time name="diis">  322.20  324.78</time>
   <time name="orth">    3.06    3.09</time>
   <time name="total">  436.27  439.78</time>
   <energy>
    <i name="e_fr_energy">    -36.92441166 </i>
    <i name="e_wo_entrp">    -36.92431894 </i>
    <i name="e_0_energy">    -36.92436530 </i>
   </energy>
  </scstep>
  <scstep>
   <time name="diag">   79.50   79.69</time>
   <time name="diis">  334.50  335.03</time>
   <time name="orth">    3.09    3.09</time>
   <time name="total">  448.93  449.70</time>
   <energy>
    <i name="e_fr_energy">    -36.92440724 </i>
    <i name="e_wo_entrp">    -36.92431585 </i>
    <i name="e_0_energy">    -36.92436154 </i>
   </energy>
  </scstep>
  <scstep>
   <time name="diag">   79.50   79.71</time>
   <time name="diis">  336.59  338.54</time>
   <time name="orth">    3.08    3.09</time>
   <time name="total">  451.48  453.71</time>
   <energy>
    <i name="e_fr_energy">    -36.92440740 </i>
    <i name="e_wo_entrp">    -36.92431616 </i>
    <i name="e_0_energy">    -36.92436178 </i>
   </energy>
  </scstep>
  <scstep>
   <time name="diag">   79.54   79.70</time>
   <time name="diis">  335.28  335.76</time>
   <time name="orth">    3.09    3.09</time>
   <time name="total">  450.73  451.41</time>
   <energy>
    <i name="e_fr_energy">    -36.92440731 </i>
    <i name="e_wo_entrp">    -36.92431590 </i>
    <i name="e_0_energy">    -36.92436160 </i>
   </energy>
  </scstep>
  <scstep>
   <time name="diag">   79.52   79.69</time>
   <time name="diis">  331.62  334.04</time>
   <time name="orth">    3.08    3.09</time>
   <time name="total">  445.49  448.26</time>
   <energy>
    <i name="e_fr_energy">    -36.92440731 </i>
    <i name="e_wo_entrp">    -36.92431589 </i>
    <i name="e_0_energy">    -36.92436160 </i>
   </energy>
  </scstep>
  <scstep>
   <time name="diag">   79.24   79.72</time>
   <time name="diis">  301.34  304.14</time>
   <time name="orth">    3.07    3.07</time>
   <time name="total">  415.29  418.85</time>
   <energy>
    <i name="e_fr_energy">    -36.92440731 </i>
    <i name="e_wo_entrp">    -36.92431590 </i>
    <i name="e_0_energy">    -36.92436160 </i>
   </energy>
  </scstep>
  <scstep>
   <time name="diag">   79.39   79.69</time>
   <time name="diis">  220.84  222.62</time>
   <time name="orth">    3.08    3.09</time>
   <time name="total">  335.00  337.31</time>
   <energy>
    <i name="e_fr_energy">    -36.92440731 </i>
    <i name="e_wo_entrp">    -36.92431590 </i>
    <i name="e_0_energy">    -36.92436160 </i>
   </energy>
  </scstep>
  <scstep>
   <time name="diag">   79.18   79.70</time>
   <time name="diis">  218.09  219.90</time>
   <time name="orth">    3.07    3.09</time>
   <time name="total">  332.99  335.67</time>
   <energy>
    <i name="e_fr_energy">    -36.92440731 </i>
    <i name="e_wo_entrp">    -36.92431590 </i>
    <i name="e_0_energy">    -36.92436160 </i>
   </energy>
  </scstep>
  <scstep>
   <time name="diag">   79.51   79.71</time>
   <time name="diis">  209.29  209.93</time>
   <time name="orth">    3.07    3.09</time>
   <time name="total">  324.40  325.55</time>
   <energy>
    <i name="e_fr_energy">    -36.92440731 </i>
    <i name="e_wo_entrp">    -36.92431590 </i>
    <i name="e_0_energy">    -36.92436160 </i>
   </energy>
  </scstep>
  <scstep>
   <time name="diag">   79.28   79.73</time>
   <time name="diis">  198.78  200.71</time>
   <time name="orth">    3.07    3.08</time>
   <time name="total">  313.08  315.74</time>
   <energy>
    <i name="e_fr_energy">    -36.92440731 </i>
    <i name="e_wo_entrp">    -36.92431590 </i>
    <i name="e_0_energy">    -36.92436160 </i>
   </energy>
  </scstep>
  <scstep>
   <time name="diag">   79.28   79.70</time>
   <time name="diis">  193.21  193.68</time>
   <time name="orth">    3.08    3.10</time>
   <time name="total">  307.86  309.03</time>
   <energy>
    <i name="e_fr_energy">    -36.92440731 </i>
    <i name="e_wo_entrp">    -36.92431590 </i>
    <i name="e_0_energy">    -36.92436160 </i>
   </energy>
  </scstep>
  <scstep>
   <time name="diag">   79.21   79.75</time>
   <time name="diis">  184.88  185.92</time>
   <time name="orth">    3.07    3.08</time>
   <time name="total">  299.88  301.77</time>
   <energy>
    <i name="e_fr_energy">    -36.92440731 </i>
    <i name="e_wo_entrp">    -36.92431590 </i>
    <i name="e_0_energy">    -36.92436160 </i>
   </energy>
  </scstep>
  <scstep>
   <time name="diag">   79.20   79.66</time>
   <time name="diis">  178.40  180.25</time>
   <time name="orth">    3.07    3.08</time>
   <time name="total">  292.10  294.66</time>
   <energy>
    <i name="e_fr_energy">    -36.92440731 </i>
    <i name="e_wo_entrp">    -36.92431590 </i>
    <i name="e_0_energy">    -36.92436160 </i>
   </energy>
  </scstep>
  <scstep>
   <time name="diag">   79.09   79.64</time>
   <time name="diis">  174.22  175.54</time>
   <time name="orth">    3.07    3.08</time>
   <time name="total">  287.54  289.63</time>
   <energy>
    <i name="e_fr_energy">    -36.92440731 </i>
    <i name="e_wo_entrp">    -36.92431590 </i>
    <i name="e_0_energy">    -36.92436160 </i>
   </energy>
  </scstep>
  <scstep>
   <time name="diag">   79.57   79.68</time>
   <time name="diis">  174.00  174.51</time>
   <time name="orth">    3.08    3.09</time>
   <time name="total">  289.01  289.77</time>
   <energy>
    <i name="e_fr_energy">    -36.92440731 </i>
    <i name="e_wo_entrp">    -36.92431590 </i>
    <i name="e_0_energy">    -36.92436160 </i>
   </energy>
  </scstep>
  <scstep>
   <time name="diag">   79.43   79.85</time>
   <time name="diis">  169.44  170.27</time>
   <time name="orth">    3.08    3.08</time>
   <time name="total">  283.70  285.34</time>
   <energy>
    <i name="e_fr_energy">    -36.92440731 </i>
    <i name="e_wo_entrp">    -36.92431590 </i>
    <i name="e_0_energy">    -36.92436160 </i>
   </energy>
  </scstep>
  <scstep>
   <time name="diag">   79.64   79.80</time>
   <time name="diis">  168.81  168.89</time>
   <time name="orth">    3.10    3.10</time>
   <time name="total">  283.10  283.36</time>
   <energy>
    <i name="e_fr_energy">    -36.92440731 </i>
    <i name="e_wo_entrp">    -36.92431590 </i>
    <i name="e_0_energy">    -36.92436160 </i>
   </energy>
  </scstep>
  <scstep>
   <time name="diag">   79.72   79.74</time>
   <time name="diis">  165.98  166.02</time>
   <time name="orth">    3.10    3.10</time>
   <time name="total">  251.18  251.27</time>
   <energy>
    <i name="alphaZ">      6.18334092 </i>
    <i name="ewald">   2585.42379401 </i>
    <i name="hartreedc">  -3079.37174840 </i>
    <i name="XCdc">     57.51882576 </i>
    <i name="pawpsdc">    277.00084949 </i>
    <i name="pawaedc">   -282.14936194 </i>
    <i name="eentropy">     -0.00009141 </i>
    <i name="bandstr">   -190.15354265 </i>
    <i name="atom">    588.62352690 </i>
    <i name="e_fr_energy">    -36.92440731 </i>
    <i name="e_wo_entrp">    -36.92431590 </i>
    <i name="e_0_energy">    -36.92436160 </i>
   </energy>
  </scstep>
  <structure>
   <crystal>
    <varray name="basis" >
     <v>       4.27376912       0.00000000       0.00000000 </v>
     <v>       0.00000000       2.46717589       0.00000000 </v>
     <v>       0.00000000       0.00000000      19.99574157 </v>
    </varray>
    <i name="volume">    210.83790140 </i>
    <varray name="rec_basis" >
     <v>       0.23398550       0.00000000       0.00000000 </v>
     <v>       0.00000000       0.40532173       0.00000000 </v>
     <v>       0.00000000       0.00000000       0.05001065 </v>
    </varray>
   </crystal>
   <varray name="positions" >
    <v>      -0.00053429      -0.00000000       0.00000000 </v>
    <v>       0.16720096       0.50000000       0.00000000 </v>
    <v>       0.49946571       0.50000000       0.00000000 </v>
    <v>       0.66720096      -0.00000000       0.00000000 </v>
   </varray>
  </structure>
  <varray name="forces" >
   <v>       0.23820863       0.00000000      -0.00000000 </v>
   <v>      -0.23820863       0.00000000       0.00000000 </v>
   <v>       0.23820863      -0.00000000      -0.00000000 </v>
   <v>      -0.23820863       0.00000000       0.00000000 </v>
  </varray>
  <varray name="stress" >
   <v>       0.55202084       0.00000000       0.00000000 </v>
   <v>       0.00000000      -0.67077286       0.00000000 </v>
   <v>       0.00000000       0.00000000      -0.01004216 </v>
  </varray>
  <energy>
   <i name="e_fr_energy">    -36.92440731 </i>
   <i name="e_wo_entrp">    -36.92436160 </i>
   <i name="e_0_energy">     -0.00009141 </i>
  </energy>
  <time name="totalsc"> 7137.69 7177.02</time>
 </calculation>
 <calculation>
  <scstep>
   <time name="dav">  305.88  306.61</time>
   <time name="total">  337.56  338.37</time>
   <energy>
    <i name="alphaZ">      6.18334092 </i>
    <i name="ewald">   2585.42030372 </i>
    <i name="hartreedc">  -3079.37048916 </i>
    <i name="XCdc">     57.51873388 </i>
    <i name="pawpsdc">    277.00084949 </i>
    <i name="pawaedc">   -282.14936194 </i>
    <i name="eentropy">     -0.00013000 </i>
    <i name="bandstr">   -190.15226948 </i>
    <i name="atom">    588.62352690 </i>
    <i name="e_fr_energy">    -36.92549566 </i>
    <i name="e_wo_entrp">    -36.92536567 </i>
    <i name="e_0_energy">    -36.92543067 </i>
   </energy>
  </scstep>
  <scstep>
   <time name="diag">   79.38   79.72</time>
   <time name="diis">  323.53  325.11</time>
   <time name="orth">    3.09    3.10</time>
   <time name="total">  437.27  439.52</time>
   <energy>
    <i name="e_fr_energy">    -36.92552085 </i>
    <i name="e_wo_entrp">    -36.92539051 </i>
    <i name="e_0_energy">    -36.92545568 </i>
   </energy>
  </scstep>
  <scstep>
   <time name="diag">   79.63   79.80</time>
   <time name="diis">  326.88  327.06</time>
   <time name="orth">    3.07    3.09</time>
   <time name="total">  440.84  441.42</time>
   <energy>
    <i name="e_fr_energy">    -36.92548970 </i>
    <i name="e_wo_entrp">    -36.92535911 </i>
    <i name="e_0_energy">    -36.92542440 </i>
   </energy>
  </scstep>
  <scstep>
   <time name="diag">   79.40   79.77</time>
   <time name="diis">  332.12  332.98</time>
   <time name="orth">    3.08    3.08</time>
   <time name="total">  446.44  447.70</time>
   <energy>
    <i name="e_fr_energy">    -36.92548701 </i>
    <i name="e_wo_entrp">    -36.92535644 </i>
    <i name="e_0_energy">    -36.92542172 </i>
   </energy>
  </scstep>
  <scstep>
   <time name="diag">   79.69   79.71</time>
   <time name="diis">  339.34  340.31</time>
   <time name="orth">    3.08    3.08</time>
   <time name="total">  453.84  455.01</time>
   <energy>
    <i name="e_fr_energy">    -36.92548709 </i>
    <i name="e_wo_entrp">    -36.92535653 </i>
    <i name="e_0_energy">    -36.92542181 </i>
   </energy>
  </scstep>
  <scstep>
   <time name="diag">   79.38   79.81</time>
   <time name="diis">  333.82  334.19</time>
   <time name="orth">    3.08    3.08</time>
   <time name="total">  448.16  449.07</time>
   <energy>
    <i name="e_fr_energy">    -36.92548704 </i>
    <i name="e_wo_entrp">    -36.92535647 </i>
    <i name="e_0_energy">    -36.92542176 </i>
   </energy>
  </scstep>
  <scstep>
   <time name="diag">   79.51   79.77</time>
   <time name="diis">  334.27  334.93</time>
   <time name="orth">    3.08    3.08</time>
   <time name="total">  448.47  449.43</time>
   <energy>
    <i name="e_fr_energy">    -36.92548705 </i>
    <i name="e_wo_entrp">    -36.92535647 </i>
    <i name="e_0_energy">    -36.92542176 </i>
   </energy>
  </scstep>
  <scstep>
   <time name="diag">   79.71   79.73</time>
   <time name="diis">  269.20  269.30</time>
   <time name="orth">    3.10    3.10</time>
   <time name="total">  383.69  383.84</time>
   <energy>
    <i name="e_fr_energy">    -36.92548705 </i>
    <i name="e_wo_entrp">    -36.92535647 </i>
    <i name="e_0_energy">    -36.92542176 </i>
   </energy>
  </scstep>
  <scstep>
   <time name="diag">   79.76   79.79</time>
   <time name="diis">  219.26  219.31</time>
   <time name="orth">    3.10    3.10</time>
   <time name="total">  333.90  333.99</time>
   <energy>
    <i name="e_fr_energy">    -36.92548705 </i>
    <i name="e_wo_entrp">    -36.92535647 </i>
    <i name="e_0_energy">    -36.92542176 </i>
   </energy>
  </scstep>
  <scstep>
   <time name="diag">   79.66   79.76</time>
   <time name="diis">  215.58  216.76</time>
   <time name="orth">    3.08    3.10</time>
   <time name="total">  300.66  301.99</time>
   <energy>
    <i name="alphaZ">      6.18334092 </i>
    <i name="ewald">   2585.42030372 </i>
    <i name="hartreedc">  -3079.36907950 </i>
    <i name="XCdc">     57.51868975 </i>
    <i name="pawpsdc">    276.99409880 </i>
    <i name="pawaedc">   -282.14257365 </i>
    <i name="eentropy">     -0.00013057 </i>
    <i name="bandstr">   -190.15366342 </i>
    <i name="atom">    588.62352690 </i>
    <i name="e_fr_energy">    -36.92548705 </i>
    <i name="e_wo_entrp">    -36.92535647 </i>
    <i name="e_0_energy">    -36.92542176 </i>
   </energy>
  </scstep>
  <structure>
   <crystal>
    <varray name="basis" >
     <v>       4.27376912       0.00000000       0.00000000 </v>
     <v>       0.00000000       2.46717589       0.00000000 </v>
     <v>       0.00000000       0.00000000      19.99574157 </v>
    </varray>
    <i name="volume">    210.83790140 </i>
    <varray name="rec_basis" >
     <v>       0.23398550       0.00000000       0.00000000 </v>
     <v>       0.00000000       0.40532173       0.00000000 </v>
     <v>       0.00000000       0.00000000       0.05001065 </v>
    </varray>
   </crystal>
   <varray name="positions" >
    <v>      -0.00000059       0.00000000      -0.00000000 </v>
    <v>       0.16666725       0.50000000       0.00000000 </v>
    <v>       0.49999941       0.50000000      -0.00000000 </v>
    <v>       0.66666725      -0.00000000       0.00000000 </v>
   </varray>
  </structure>
  <varray name="forces" >
   <v>      -0.00052897       0.00000000       0.00000000 </v>
   <v>       0.00052897      -0.00000000      -0.00000000 </v>
   <v>      -0.00052897       0.00000000       0.00000000 </v>
   <v>       0.00052897      -0.00000000      -0.00000000 </v>
  </varray>
  <varray name="stress" >
   <v>      -0.16078791       0.00000000       0.00000000 </v>
   <v>       0.00000000      -0.00265594       0.00000000 </v>
   <v>       0.00000000       0.00000000      -0.01000639 </v>
  </varray>
  <energy>
   <i name="e_fr_energy">    -36.92548705 </i>
   <i name="e_wo_entrp">    -36.92542176 </i>
   <i name="e_0_energy">     -0.00013057 </i>
  </energy>
  <time name="totalsc"> 4129.74 4139.81</time>
 </calculation>
 <calculation>
  <scstep>
   <time name="dav">  316.06  316.65</time>
   <time name="total">  347.81  348.40</time>
   <energy>
    <i name="alphaZ">      6.18334092 </i>
    <i name="ewald">   2585.42030324 </i>
    <i name="hartreedc">  -3079.36908443 </i>
    <i name="XCdc">     57.51868981 </i>
    <i name="pawpsdc">    276.99409542 </i>
    <i name="pawaedc">   -282.14257023 </i>
    <i name="eentropy">     -0.00013058 </i>
    <i name="bandstr">   -190.15365811 </i>
    <i name="atom">    588.62352690 </i>
    <i name="e_fr_energy">    -36.92548705 </i>
    <i name="e_wo_entrp">    -36.92535647 </i>
    <i name="e_0_energy">    -36.92542176 </i>
   </energy>
  </scstep>
  <scstep>
   <time name="diag">   79.52   79.79</time>
   <time name="diis">  321.74  321.81</time>
   <time name="orth">    3.10    3.10</time>
   <time name="total">  436.51  436.86</time>
   <energy>
    <i name="e_fr_energy">    -36.92548705 </i>
    <i name="e_wo_entrp">    -36.92535647 </i>
    <i name="e_0_energy">    -36.92542176 </i>
   </energy>
  </scstep>
  <scstep>
   <time name="diag">   79.72   79.82</time>
   <time name="diis">  316.03  316.21</time>
   <time name="orth">    3.08    3.08</time>
   <time name="total">  430.69  431.13</time>
   <energy>
    <i name="e_fr_energy">    -36.92548705 </i>
    <i name="e_wo_entrp">    -36.92535647 </i>
    <i name="e_0_energy">    -36.92542176 </i>
   </energy>
  </scstep>
  <scstep>
   <time name="diag">   79.38   79.77</time>
   <time name="diis">  209.67  210.73</time>
   <time name="orth">    3.08    3.08</time>
   <time name="total">  323.97  325.59</time>
   <energy>
    <i name="e_fr_energy">    -36.92548705 </i>
    <i name="e_wo_entrp">    -36.92535647 </i>
    <i name="e_0_energy">    -36.92542176 </i>
   </energy>
  </scstep>
  <scstep>
   <time name="diag">   79.39   79.80</time>
   <time name="diis">  213.26  214.26</time>
   <time name="orth">    3.08    3.08</time>
   <time name="total">  298.08  299.52</time>
   <energy>
    <i name="alphaZ">      6.18334092 </i>
    <i name="ewald">   2585.42030324 </i>
    <i name="hartreedc">  -3079.36908780 </i>
    <i name="XCdc">     57.51868986 </i>
    <i name="pawpsdc">    276.99409050 </i>
    <i name="pawaedc">   -282.14256533 </i>
    <i name="eentropy">     -0.00013058 </i>
    <i name="bandstr">   -190.15365478 </i>
    <i name="atom">    588.62352690 </i>
    <i name="e_fr_energy">    -36.92548705 </i>
    <i name="e_wo_entrp">    -36.92535647 </i>
    <i name="e_0_energy">    -36.92542176 </i>
   </energy>
  </scstep>
  <structure>
   <crystal>
    <varray name="basis" >
     <v>       4.27376912       0.00000000       0.00000000 </v>
     <v>       0.00000000       2.46717589       0.00000000 </v>
     <v>       0.00000000       0.00000000      19.99574157 </v>
    </varray>
    <i name="volume">    210.83790140 </i>
    <varray name="rec_basis" >
     <v>       0.23398550       0.00000000       0.00000000 </v>
     <v>       0.00000000       0.40532173       0.00000000 </v>
     <v>       0.00000000       0.00000000       0.05001065 </v>
    </varray>
   </crystal>
   <varray name="positions" >
    <v>      -0.00000177       0.00000000       0.00000000 </v>
    <v>       0.16666843       0.50000000      -0.00000000 </v>
    <v>       0.49999823       0.50000000       0.00000000 </v>
    <v>       0.66666843      -0.00000000      -0.00000000 </v>
   </varray>
  </structure>
  <varray name="forces" >
   <v>       0.00001090       0.00000000       0.00000000 </v>
   <v>      -0.00001090      -0.00000000      -0.00000000 </v>
   <v>       0.00001090      -0.00000000       0.00000000 </v>
   <v>      -0.00001090       0.00000000      -0.00000000 </v>
  </varray>
  <varray name="stress" >
   <v>      -0.15933248       0.00000000       0.00000000 </v>
   <v>       0.00000000      -0.00412115       0.00000000 </v>
   <v>       0.00000000       0.00000000      -0.01002249 </v>
  </varray>
  <energy>
   <i name="e_fr_energy">    -36.92548705 </i>
   <i name="e_wo_entrp">    -36.92542176 </i>
   <i name="e_0_energy">     -0.00013058 </i>
  </energy>
  <time name="totalsc"> 1936.50 1941.57</time>
 </calculation>
 <calculation>
  <scstep>
   <time name="dav">  270.75  271.09</time>
   <time name="total">  302.34  302.71</time>
   <energy>
    <i name="alphaZ">      6.18334092 </i>
    <i name="ewald">   2585.42030325 </i>
    <i name="hartreedc">  -3079.36908746 </i>
    <i name="XCdc">     57.51868984 </i>
    <i name="pawpsdc">    276.99409739 </i>
    <i name="pawaedc">   -282.14257219 </i>
    <i name="eentropy">     -0.00013058 </i>
    <i name="bandstr">   -190.15365513 </i>
    <i name="atom">    588.62352690 </i>
    <i name="e_fr_energy">    -36.92548705 </i>
    <i name="e_wo_entrp">    -36.92535647 </i>
    <i name="e_0_energy">    -36.92542176 </i>
   </energy>
  </scstep>
  <scstep>
   <time name="diag">   79.75   79.78</time>
   <time name="diis">  193.47  193.65</time>
   <time name="orth">    3.08    3.08</time>
   <time name="total">  308.19  308.52</time>
   <energy>
    <i name="e_fr_energy">    -36.92548705 </i>
    <i name="e_wo_entrp">    -36.92535647 </i>
    <i name="e_0_energy">    -36.92542176 </i>
   </energy>
  </scstep>
  <scstep>
   <time name="diag">   79.79   79.86</time>
   <time name="diis">  185.31  185.36</time>
   <time name="orth">    3.10    3.10</time>
   <time name="total">  299.94  300.08</time>
   <energy>
    <i name="e_fr_energy">    -36.92548705 </i>
    <i name="e_wo_entrp">    -36.92535647 </i>
    <i name="e_0_energy">    -36.92542176 </i>
   </energy>
  </scstep>
  <scstep>
   <time name="diag">   79.68   79.76</time>
   <time name="diis">  176.75  176.80</time>
   <time name="orth">    3.11    3.11</time>
   <time name="total">  291.17  291.54</time>
   <energy>
    <i name="e_fr_energy">    -36.92548705 </i>
    <i name="e_wo_entrp">    -36.92535647 </i>
    <i name="e_0_energy">    -36.92542176 </i>
   </energy>
  </scstep>
  <scstep>
   <time name="diag">   79.73   79.83</time>
   <time name="diis">  170.29  170.32</time>
   <time name="orth">    3.10    3.10</time>
   <time name="total">  285.09  285.24</time>
   <energy>
    <i name="e_fr_energy">    -36.92548705 </i>
    <i name="e_wo_entrp">    -36.92535647 </i>
    <i name="e_0_energy">    -36.92542176 </i>
   </energy>
  </scstep>
  <scstep>
   <time name="diag">   79.70   79.75</time>
   <time name="diis">  155.82  155.93</time>
   <time name="orth">    3.09    3.10</time>
   <time name="total">  269.98  270.24</time>
   <energy>
    <i name="e_fr_energy">    -36.92548705 </i>
    <i name="e_wo_entrp">    -36.92535647 </i>
    <i name="e_0_energy">    -36.92542176 </i>
   </energy>
  </scstep>
  <scstep>
   <time name="diag">   79.68   79.73</time>
   <time name="diis">  151.69  151.78</time>
   <time name="orth">    3.08    3.08</time>
   <time name="total">  266.04  266.20</time>
   <energy>
    <i name="e_fr_energy">    -36.92548705 </i>
    <i name="e_wo_entrp">    -36.92535647 </i>
    <i name="e_0_energy">    -36.92542176 </i>
   </energy>
  </scstep>
  <scstep>
   <time name="diag">   79.82   79.84</time>
   <time name="diis">  144.04  144.39</time>
   <time name="orth">    3.08    3.10</time>
   <time name="total">  258.73  259.30</time>
   <energy>
    <i name="e_fr_energy">    -36.92548705 </i>
    <i name="e_wo_entrp">    -36.92535647 </i>
    <i name="e_0_energy">    -36.92542176 </i>
   </energy>
  </scstep>
  <scstep>
   <time name="diag">   79.39   79.79</time>
   <time name="diis">  145.68  146.46</time>
   <time name="orth">    3.08    3.08</time>
   <time name="total">  259.94  261.24</time>
   <energy>
    <i name="e_fr_energy">    -36.92548705 </i>
    <i name="e_wo_entrp">    -36.92535647 </i>
    <i name="e_0_energy">    -36.92542176 </i>
   </energy>
  </scstep>
  <scstep>
   <time name="diag">   79.73   79.75</time>
   <time name="diis">  139.49  139.53</time>
   <time name="orth">    3.10    3.10</time>
   <time name="total">  224.70  224.79</time>
   <energy>
    <i name="alphaZ">      6.18334092 </i>
    <i name="ewald">   2585.42030325 </i>
    <i name="hartreedc">  -3079.36908779 </i>
    <i name="XCdc">     57.51868983 </i>
    <i name="pawpsdc">    276.99409336 </i>
    <i name="pawaedc">   -282.14256816 </i>
    <i name="eentropy">     -0.00013058 </i>
    <i name="bandstr">   -190.15365480 </i>
    <i name="atom">    588.62352690 </i>
    <i name="e_fr_energy">    -36.92548705 </i>
    <i name="e_wo_entrp">    -36.92535647 </i>
    <i name="e_0_energy">    -36.92542176 </i>
   </energy>
  </scstep>
  <structure>
   <crystal>
    <varray name="basis" >
     <v>       4.27376912       0.00000000       0.00000000 </v>
     <v>       0.00000000       2.46717589       0.00000000 </v>
     <v>       0.00000000       0.00000000      19.99574157 </v>
    </varray>
    <i name="volume">    210.83790140 </i>
    <varray name="rec_basis" >
     <v>       0.23398550       0.00000000       0.00000000 </v>
     <v>       0.00000000       0.40532173       0.00000000 </v>
     <v>       0.00000000       0.00000000       0.05001065 </v>
    </varray>
   </crystal>
   <varray name="positions" >
    <v>      -0.00000174       0.00000000       0.00000000 </v>
    <v>       0.16666841       0.50000000      -0.00000000 </v>
    <v>       0.49999826       0.50000000       0.00000000 </v>
    <v>       0.66666841       0.00000000      -0.00000000 </v>
   </varray>
  </structure>
  <varray name="forces" >
   <v>      -0.00001010      -0.00000000       0.00000000 </v>
   <v>       0.00001010       0.00000000      -0.00000000 </v>
   <v>      -0.00001010       0.00000000       0.00000000 </v>
   <v>       0.00001010      -0.00000000      -0.00000000 </v>
  </varray>
  <varray name="stress" >
   <v>      -0.15930765       0.00000000       0.00000000 </v>
   <v>       0.00000000      -0.00413660       0.00000000 </v>
   <v>       0.00000000       0.00000000      -0.01002498 </v>
  </varray>
  <energy>
   <i name="e_fr_energy">    -36.92548705 </i>
   <i name="e_wo_entrp">    -36.92542176 </i>
   <i name="e_0_energy">     -0.00013058 </i>
  </energy>
  <time name="totalsc"> 2865.25 2869.23</time>
 </calculation>
 <calculation>
  <scstep>
   <time name="dav">  254.13  254.74</time>
   <time name="total">  285.78  286.52</time>
   <energy>
    <i name="alphaZ">      6.18334092 </i>
    <i name="ewald">   2585.42030325 </i>
    <i name="hartreedc">  -3079.36908789 </i>
    <i name="XCdc">     57.51868983 </i>
    <i name="pawpsdc">    276.99409347 </i>
    <i name="pawaedc">   -282.14256827 </i>
    <i name="eentropy">     -0.00013058 </i>
    <i name="bandstr">   -190.15365469 </i>
    <i name="atom">    588.62352690 </i>
    <i name="e_fr_energy">    -36.92548705 </i>
    <i name="e_wo_entrp">    -36.92535647 </i>
    <i name="e_0_energy">    -36.92542176 </i>
   </energy>
  </scstep>
  <scstep>
   <time name="diag">   79.62   79.77</time>
   <time name="diis">  131.29  131.90</time>
   <time name="orth">    3.08    3.10</time>
   <time name="total">  245.43  246.35</time>
   <energy>
    <i name="e_fr_energy">    -36.92548705 </i>
    <i name="e_wo_entrp">    -36.92535647 </i>
    <i name="e_0_energy">    -36.92542176 </i>
   </energy>
  </scstep>
  <scstep>
   <time name="diag">   79.42   79.72</time>
   <time name="diis">  141.23  141.26</time>
   <time name="orth">    3.10    3.10</time>
   <time name="total">  255.34  255.75</time>
   <energy>
    <i name="e_fr_energy">    -36.92548705 </i>
    <i name="e_wo_entrp">    -36.92535647 </i>
    <i name="e_0_energy">    -36.92542176 </i>
   </energy>
  </scstep>
  <scstep>
   <time name="diag">   79.26   79.86</time>
   <time name="diis">  135.68  136.86</time>
   <time name="orth">    3.08    3.08</time>
   <time name="total">  248.90  250.84</time>
   <energy>
    <i name="e_fr_energy">    -36.92548705 </i>
    <i name="e_wo_entrp">    -36.92535647 </i>
    <i name="e_0_energy">    -36.92542176 </i>
   </energy>
  </scstep>
  <scstep>
   <time name="diag">   79.41   79.75</time>
   <time name="diis">  126.15  126.18</time>
   <time name="orth">    3.08    3.08</time>
   <time name="total">  211.03  211.41</time>
   <energy>
    <i name="alphaZ">      6.18334092 </i>
    <i name="ewald">   2585.42030325 </i>
    <i name="hartreedc">  -3079.36908796 </i>
    <i name="XCdc">     57.51868983 </i>
    <i name="pawpsdc">    276.99409471 </i>
    <i name="pawaedc">   -282.14256951 </i>
    <i name="eentropy">     -0.00013058 </i>
    <i name="bandstr">   -190.15365463 </i>
    <i name="atom">    588.62352690 </i>
    <i name="e_fr_energy">    -36.92548705 </i>
    <i name="e_wo_entrp">    -36.92535647 </i>
    <i name="e_0_energy">    -36.92542176 </i>
   </energy>
  </scstep>
  <structure>
   <crystal>
    <varray name="basis" >
     <v>       4.27376912       0.00000000       0.00000000 </v>
     <v>       0.00000000       2.46717589       0.00000000 </v>
     <v>       0.00000000       0.00000000      19.99574157 </v>
    </varray>
    <i name="volume">    210.83790140 </i>
    <varray name="rec_basis" >
     <v>       0.23398550       0.00000000       0.00000000 </v>
     <v>       0.00000000       0.40532173       0.00000000 </v>
     <v>       0.00000000       0.00000000       0.05001065 </v>
    </varray>
   </crystal>
   <varray name="positions" >
    <v>      -0.00000176       0.00000000       0.00000000 </v>
    <v>       0.16666842       0.50000000      -0.00000000 </v>
    <v>       0.49999824       0.50000000       0.00000000 </v>
    <v>       0.66666842       0.00000000      -0.00000000 </v>
   </varray>
  </structure>
  <varray name="forces" >
   <v>      -0.00000137       0.00000000       0.00000000 </v>
   <v>       0.00000137       0.00000000       0.00000000 </v>
   <v>      -0.00000137       0.00000000       0.00000000 </v>
   <v>       0.00000137      -0.00000000       0.00000000 </v>
  </varray>
  <varray name="stress" >
   <v>      -0.15928174       0.00000000       0.00000000 </v>
   <v>       0.00000000      -0.00416746       0.00000000 </v>
   <v>       0.00000000       0.00000000      -0.01002415 </v>
  </varray>
  <energy>
   <i name="e_fr_energy">    -36.92548705 </i>
   <i name="e_wo_entrp">    -36.92542176 </i>
   <i name="e_0_energy">     -0.00013058 </i>
[...]
       <r>   -9.2047    1.0000 </r>
       <r>   -5.5949    1.0000 </r>
       <r>   -5.5949    1.0000 </r>
       <r>   -0.4222    0.0000 </r>
       <r>   -0.4222    0.0000 </r>
       <r>    4.8362    0.0000 </r>
       <r>    4.8362    0.0000 </r>
      </set>
      <set comment="kpoint 209">
       <r>  -18.8384    1.0000 </r>
       <r>  -17.0473    1.0000 </r>
       <r>  -14.0495    1.0000 </r>
       <r>  -12.4215    1.0000 </r>
       <r>  -12.4180    1.0000 </r>
       <r>  -10.8850    1.0000 </r>
       <r>   -6.4188    1.0000 </r>
       <r>   -4.5278    1.0000 </r>
       <r>   -0.9852    0.0000 </r>
       <r>    1.1824    0.0000 </r>
       <r>    5.2489    0.0000 </r>
       <r>    6.0375    0.0000 </r>
      </set>
      <set comment="kpoint 210">
       <r>  -18.8287    1.0000 </r>
       <r>  -17.0395    1.0000 </r>
       <r>  -14.1358    1.0000 </r>
       <r>  -12.5009    1.0000 </r>
       <r>  -12.3240    1.0000 </r>
       <r>  -10.8079    1.0000 </r>
       <r>   -6.4100    1.0000 </r>
       <r>   -4.5308    1.0000 </r>
       <r>   -0.9948    0.0000 </r>
       <r>    1.1568    0.0000 </r>
       <r>    5.2625    0.0000 </r>
       <r>    6.0535    0.0000 </r>
      </set>
      <set comment="kpoint 211">
       <r>  -18.7996    1.0000 </r>
       <r>  -17.0165    1.0000 </r>
       <r>  -14.3502    1.0000 </r>
       <r>  -12.7020    1.0000 </r>
       <r>  -12.0864    1.0000 </r>
       <r>  -10.6143    1.0000 </r>
       <r>   -6.3836    1.0000 </r>
       <r>   -4.5401    1.0000 </r>
       <r>   -1.0219    0.0000 </r>
       <r>    1.0820    0.0000 </r>
       <r>    5.3032    0.0000 </r>
       <r>    6.1013    0.0000 </r>
      </set>
      <set comment="kpoint 212">
       <r>  -18.7511    1.0000 </r>
       <r>  -16.9794    1.0000 </r>
       <r>  -14.6242    1.0000 </r>
       <r>  -12.9664    1.0000 </r>
       <r>  -11.7740    1.0000 </r>
       <r>  -10.3647    1.0000 </r>
       <r>   -6.3400    1.0000 </r>
       <r>   -4.5573    1.0000 </r>
       <r>   -1.0613    0.0000 </r>
       <r>    0.9632    0.0000 </r>
       <r>    5.3707    0.0000 </r>
       <r>    6.1797    0.0000 </r>
      </set>
      <set comment="kpoint 213">
       <r>  -18.6835    1.0000 </r>
       <r>  -16.9310    1.0000 </r>
       <r>  -14.9160    1.0000 </r>
       <r>  -13.2580    1.0000 </r>
       <r>  -11.4283    1.0000 </r>
       <r>  -10.0986    1.0000 </r>
       <r>   -6.2796    1.0000 </r>
       <r>   -4.5846    1.0000 </r>
       <r>   -1.1055    0.0000 </r>
       <r>    0.8081    0.0000 </r>
       <r>    5.4638    0.0000 </r>
       <r>    6.2874    0.0000 </r>
      </set>
      <set comment="kpoint 214">
       <r>  -18.5969    1.0000 </r>
       <r>  -16.8763    1.0000 </r>
       <r>  -15.2017    1.0000 </r>
       <r>  -13.5584    1.0000 </r>
       <r>  -11.0713    1.0000 </r>
       <r>   -9.8389    1.0000 </r>
       <r>   -6.2032    1.0000 </r>
       <r>   -4.6249    1.0000 </r>
       <r>   -1.1453    0.0000 </r>
       <r>    0.6254    0.0000 </r>
       <r>    5.5771    0.0000 </r>
       <r>    6.1668    0.0000 </r>
      </set>
      <set comment="kpoint 215">
       <r>  -18.4916    1.0000 </r>
       <r>  -16.8258    1.0000 </r>
       <r>  -15.4614    1.0000 </r>
       <r>  -13.8579    1.0000 </r>
       <r>  -10.7167    1.0000 </r>
       <r>   -9.6010    1.0000 </r>
       <r>   -6.1117    1.0000 </r>
       <r>   -4.6806    1.0000 </r>
       <r>   -1.1718    0.0000 </r>
       <r>    0.4240    0.0000 </r>
       <r>    5.6150    0.0000 </r>
       <r>    5.8361    0.0000 </r>
      </set>
      <set comment="kpoint 216">
       <r>  -18.3680    1.0000 </r>
       <r>  -16.8003    1.0000 </r>
       <r>  -15.6694    1.0000 </r>
       <r>  -14.1508    1.0000 </r>
       <r>  -10.3751    1.0000 </r>
       <r>   -9.3969    1.0000 </r>
       <r>   -6.0065    1.0000 </r>
       <r>   -4.7536    1.0000 </r>
       <r>   -1.1772    0.0000 </r>
       <r>    0.2123    0.0000 </r>
       <r>    5.3048    0.0000 </r>
       <r>    5.9462    0.0000 </r>
      </set>
      <set comment="kpoint 217">
       <r>  -18.2268    1.0000 </r>
       <r>  -16.8321    1.0000 </r>
       <r>  -15.7903    1.0000 </r>
       <r>  -14.4331    1.0000 </r>
       <r>  -10.0557    1.0000 </r>
       <r>   -9.2371    1.0000 </r>
       <r>   -5.8891    1.0000 </r>
       <r>   -4.8444    1.0000 </r>
       <r>   -1.1555    0.0000 </r>
       <r>   -0.0023    0.0000 </r>
       <r>    5.0104    0.0000 </r>
       <r>    5.8399    0.0000 </r>
      </set>
      <set comment="kpoint 218">
       <r>  -18.0687    1.0000 </r>
       <r>  -16.9415    1.0000 </r>
       <r>  -15.8019    1.0000 </r>
       <r>  -14.7019    1.0000 </r>
       <r>   -9.7678    1.0000 </r>
       <r>   -9.1303    1.0000 </r>
       <r>   -5.7616    1.0000 </r>
       <r>   -4.9520    1.0000 </r>
       <r>   -1.1034    0.0000 </r>
       <r>   -0.2129    0.0000 </r>
       <r>    4.7957    0.0000 </r>
       <r>    5.4427    0.0000 </r>
      </set>
      <set comment="kpoint 219">
       <r>  -17.8950    1.0000 </r>
       <r>  -17.1104    1.0000 </r>
       <r>  -15.7213    1.0000 </r>
       <r>  -14.9544    1.0000 </r>
       <r>   -9.5204    1.0000 </r>
       <r>   -9.0831    1.0000 </r>
       <r>   -5.6264    1.0000 </r>
       <r>   -5.0737    1.0000 </r>
       <r>   -1.0199    0.0000 </r>
       <r>   -0.4136    0.0000 </r>
       <r>    4.6712    0.0000 </r>
       <r>    5.1157    0.0000 </r>
      </set>
      <set comment="kpoint 220">
       <r>  -17.7075    1.0000 </r>
       <r>  -17.3069    1.0000 </r>
       <r>  -15.5798    1.0000 </r>
       <r>  -15.1878    1.0000 </r>
       <r>   -9.3220    1.0000 </r>
       <r>   -9.0994    1.0000 </r>
       <r>   -5.4864    1.0000 </r>
       <r>   -5.2061    1.0000 </r>
       <r>   -0.9062    0.0000 </r>
       <r>   -0.5992    0.0000 </r>
       <r>    4.6417    0.0000 </r>
       <r>    4.8682    0.0000 </r>
      </set>
      <set comment="kpoint 221">
       <r>  -17.5096    1.0000 </r>
       <r>  -17.5096    1.0000 </r>
       <r>  -15.3983    1.0000 </r>
       <r>  -15.3983    1.0000 </r>
       <r>   -9.1799    1.0000 </r>
       <r>   -9.1799    1.0000 </r>
       <r>   -5.3450    1.0000 </r>
       <r>   -5.3450    1.0000 </r>
       <r>   -0.7648    0.0000 </r>
       <r>   -0.7648    0.0000 </r>
       <r>    4.7083    0.0000 </r>
       <r>    4.7083    0.0000 </r>
      </set>
      <set comment="kpoint 222">
       <r>  -18.4156    1.0000 </r>
       <r>  -17.5164    1.0000 </r>
       <r>  -13.6727    1.0000 </r>
       <r>  -12.8579    1.0000 </r>
       <r>  -12.0675    1.0000 </r>
       <r>  -11.2963    1.0000 </r>
       <r>   -5.9584    1.0000 </r>
       <r>   -5.0075    1.0000 </r>
       <r>   -0.4766    0.0000 </r>
       <r>    0.6093    0.0000 </r>
       <r>    5.8491    0.0000 </r>
       <r>    6.6007    0.0000 </r>
      </set>
      <set comment="kpoint 223">
       <r>  -18.4061    1.0000 </r>
       <r>  -17.5076    1.0000 </r>
       <r>  -13.7588    1.0000 </r>
       <r>  -12.9401    1.0000 </r>
       <r>  -11.9762    1.0000 </r>
       <r>  -11.2138    1.0000 </r>
       <r>   -5.9509    1.0000 </r>
       <r>   -5.0051    1.0000 </r>
       <r>   -0.4930    0.0000 </r>
       <r>    0.5858    0.0000 </r>
       <r>    5.8626    0.0000 </r>
       <r>    6.6176    0.0000 </r>
      </set>
      <set comment="kpoint 224">
       <r>  -18.3775    1.0000 </r>
       <r>  -17.4813    1.0000 </r>
       <r>  -13.9738    1.0000 </r>
       <r>  -13.1471    1.0000 </r>
       <r>  -11.7464    1.0000 </r>
       <r>  -11.0065    1.0000 </r>
       <r>   -5.9285    1.0000 </r>
       <r>   -4.9984    1.0000 </r>
       <r>   -0.5401    0.0000 </r>
       <r>    0.5171    0.0000 </r>
       <r>    5.9032    0.0000 </r>
       <r>    6.6679    0.0000 </r>
      </set>
      <set comment="kpoint 225">
       <r>  -18.3299    1.0000 </r>
       <r>  -17.4380    1.0000 </r>
       <r>  -14.2509    1.0000 </r>
       <r>  -13.4175    1.0000 </r>
       <r>  -11.4459    1.0000 </r>
       <r>  -10.7377    1.0000 </r>
       <r>   -5.8917    1.0000 </r>
       <r>   -4.9884    1.0000 </r>
       <r>   -0.6128    0.0000 </r>
       <r>    0.4085    0.0000 </r>
       <r>    5.9701    0.0000 </r>
       <r>    6.7500    0.0000 </r>
      </set>
      <set comment="kpoint 226">
       <r>  -18.2636    1.0000 </r>
       <r>  -17.3785    1.0000 </r>
       <r>  -14.5505    1.0000 </r>
       <r>  -13.7139    1.0000 </r>
       <r>  -11.1158    1.0000 </r>
       <r>  -10.4477    1.0000 </r>
       <r>   -5.8413    1.0000 </r>
       <r>   -4.9769    1.0000 </r>
       <r>   -0.7034    0.0000 </r>
       <r>    0.2675    0.0000 </r>
       <r>    6.0613    0.0000 </r>
       <r>    6.8623    0.0000 </r>
      </set>
      <set comment="kpoint 227">
       <r>  -18.1789    1.0000 </r>
       <r>  -17.3045    1.0000 </r>
       <r>  -14.8525    1.0000 </r>
       <r>  -14.0177    1.0000 </r>
       <r>  -10.7786    1.0000 </r>
       <r>  -10.1591    1.0000 </r>
       <r>   -5.7783    1.0000 </r>
       <r>   -4.9666    1.0000 </r>
       <r>   -0.8025    0.0000 </r>
       <r>    0.1030    0.0000 </r>
       <r>    6.1553    0.0000 </r>
       <r>    6.4488    0.0000 </r>
      </set>
      <set comment="kpoint 228">
       <r>  -18.0762    1.0000 </r>
       <r>  -17.2188    1.0000 </r>
       <r>  -15.1447    1.0000 </r>
       <r>  -14.3191    1.0000 </r>
       <r>  -10.4481    1.0000 </r>
       <r>   -9.8870    1.0000 </r>
       <r>   -5.7044    1.0000 </r>
       <r>   -4.9606    1.0000 </r>
       <r>   -0.8998    0.0000 </r>
       <r>   -0.0758    0.0000 </r>
       <r>    5.9054    0.0000 </r>
       <r>    6.3719    0.0000 </r>
      </set>
      <set comment="kpoint 229">
       <r>  -17.9565    1.0000 </r>
       <r>  -17.1267    1.0000 </r>
       <r>  -15.4167    1.0000 </r>
       <r>  -14.6121    1.0000 </r>
       <r>  -10.1354    1.0000 </r>
       <r>   -9.6432    1.0000 </r>
       <r>   -5.6214    1.0000 </r>
       <r>   -4.9623    1.0000 </r>
       <r>   -0.9856    0.0000 </r>
       <r>   -0.2599    0.0000 </r>
       <r>    5.5005    0.0000 </r>
       <r>    5.9972    0.0000 </r>
      </set>
      <set comment="kpoint 230">
       <r>  -17.8207    1.0000 </r>
       <r>  -17.0390    1.0000 </r>
       <r>  -15.6547    1.0000 </r>
       <r>  -14.8923    1.0000 </r>
       <r>   -9.8504    1.0000 </r>
       <r>   -9.4381    1.0000 </r>
       <r>   -5.5317    1.0000 </r>
       <r>   -4.9750    1.0000 </r>
       <r>   -1.0508    0.0000 </r>
       <r>   -0.4412    0.0000 </r>
       <r>    5.1556    0.0000 </r>
       <r>    5.5723    0.0000 </r>
      </set>
      <set comment="kpoint 231">
       <r>  -17.6706    1.0000 </r>
       <r>  -16.9767    1.0000 </r>
       <r>  -15.8359    1.0000 </r>
       <r>  -15.1559    1.0000 </r>
       <r>   -9.6024    1.0000 </r>
       <r>   -9.2811    1.0000 </r>
       <r>   -5.4385    1.0000 </r>
       <r>   -5.0016    1.0000 </r>
       <r>   -1.0881    0.0000 </r>
       <r>   -0.6118    0.0000 </r>
       <r>    4.8884    0.0000 </r>
       <r>    5.2140    0.0000 </r>
      </set>
      <set comment="kpoint 232">
       <r>  -17.5095    1.0000 </r>
       <r>  -16.9727    1.0000 </r>
       <r>  -15.9262    1.0000 </r>
       <r>  -15.3984    1.0000 </r>
       <r>   -9.4004    1.0000 </r>
       <r>   -9.1798    1.0000 </r>
       <r>   -5.3449    1.0000 </r>
       <r>   -5.0436    1.0000 </r>
       <r>   -1.0923    0.0000 </r>
       <r>   -0.7649    0.0000 </r>
       <r>    4.7083    0.0000 </r>
       <r>    4.9321    0.0000 </r>
      </set>
      <set comment="kpoint 233">
       <r>  -17.3428    1.0000 </r>
       <r>  -17.0474    1.0000 </r>
       <r>  -15.9043    1.0000 </r>
       <r>  -15.6133    1.0000 </r>
       <r>   -9.2523    1.0000 </r>
       <r>   -9.1400    1.0000 </r>
       <r>   -5.2550    1.0000 </r>
       <r>   -5.1010    1.0000 </r>
       <r>   -1.0610    0.0000 </r>
       <r>   -0.8941    0.0000 </r>
       <r>    4.6213    0.0000 </r>
       <r>    4.7354    0.0000 </r>
      </set>
      <set comment="kpoint 234">
       <r>  -17.1817    1.0000 </r>
       <r>  -17.1817    1.0000 </r>
       <r>  -15.7892    1.0000 </r>
       <r>  -15.7892    1.0000 </r>
       <r>   -9.1643    1.0000 </r>
       <r>   -9.1643    1.0000 </r>
       <r>   -5.1725    1.0000 </r>
       <r>   -5.1725    1.0000 </r>
       <r>   -0.9942    0.0000 </r>
       <r>   -0.9942    0.0000 </r>
       <r>    4.6305    0.0000 </r>
       <r>    4.6305    0.0000 </r>
      </set>
      <set comment="kpoint 235">
       <r>  -17.9740    1.0000 </r>
       <r>  -17.9740    1.0000 </r>
       <r>  -13.2752    1.0000 </r>
       <r>  -13.2752    1.0000 </r>
       <r>  -11.6918    1.0000 </r>
       <r>  -11.6918    1.0000 </r>
       <r>   -5.4863    1.0000 </r>
       <r>   -5.4863    1.0000 </r>
       <r>    0.0555    0.0000 </r>
       <r>    0.0555    0.0000 </r>
       <r>    6.4808    0.0000 </r>
       <r>    6.4808    0.0000 </r>
      </set>
      <set comment="kpoint 236">
       <r>  -17.9647    1.0000 </r>
       <r>  -17.9647    1.0000 </r>
       <r>  -13.3598    1.0000 </r>
       <r>  -13.3598    1.0000 </r>
       <r>  -11.6046    1.0000 </r>
       <r>  -11.6046    1.0000 </r>
       <r>   -5.4808    1.0000 </r>
       <r>   -5.4808    1.0000 </r>
       <r>    0.0349    0.0000 </r>
       <r>    0.0349    0.0000 </r>
       <r>    6.4943    0.0000 </r>
       <r>    6.4943    0.0000 </r>
      </set>
      <set comment="kpoint 237">
       <r>  -17.9369    1.0000 </r>
       <r>  -17.9369    1.0000 </r>
       <r>  -13.5717    1.0000 </r>
       <r>  -13.5717    1.0000 </r>
       <r>  -11.3851    1.0000 </r>
       <r>  -11.3851    1.0000 </r>
       <r>   -5.4645    1.0000 </r>
       <r>   -5.4645    1.0000 </r>
       <r>   -0.0251    0.0000 </r>
       <r>   -0.0251    0.0000 </r>
       <r>    6.5345    0.0000 </r>
       <r>    6.5345    0.0000 </r>
      </set>
      <set comment="kpoint 238">
       <r>  -17.8908    1.0000 </r>
       <r>  -17.8908    1.0000 </r>
       <r>  -13.8467    1.0000 </r>
       <r>  -13.8467    1.0000 </r>
       <r>  -11.0992    1.0000 </r>
       <r>  -11.0992    1.0000 </r>
       <r>   -5.4381    1.0000 </r>
       <r>   -5.4381    1.0000 </r>
       <r>   -0.1192    0.0000 </r>
       <r>   -0.1192    0.0000 </r>
       <r>    6.6006    0.0000 </r>
       <r>    6.6006    0.0000 </r>
      </set>
      <set comment="kpoint 239">
       <r>  -17.8268    1.0000 </r>
       <r>  -17.8268    1.0000 </r>
       <r>  -14.1463    1.0000 </r>
       <r>  -14.1463    1.0000 </r>
       <r>  -10.7878    1.0000 </r>
       <r>  -10.7878    1.0000 </r>
       <r>   -5.4028    1.0000 </r>
       <r>   -5.4028    1.0000 </r>
       <r>   -0.2400    0.0000 </r>
       <r>   -0.2400    0.0000 </r>
       <r>    6.6875    0.0000 </r>
       <r>    6.6875    0.0000 </r>
      </set>
      <set comment="kpoint 240">
       <r>  -17.7455    1.0000 </r>
       <r>  -17.7455    1.0000 </r>
       <r>  -14.4515    1.0000 </r>
       <r>  -14.4515    1.0000 </r>
       <r>  -10.4734    1.0000 </r>
       <r>  -10.4734    1.0000 </r>
       <r>   -5.3603    1.0000 </r>
       <r>   -5.3603    1.0000 </r>
       <r>   -0.3782    0.0000 </r>
       <r>   -0.3782    0.0000 </r>
       <r>    6.6448    0.0000 </r>
       <r>    6.6448    0.0000 </r>
      </set>
      <set comment="kpoint 241">
       <r>  -17.6479    1.0000 </r>
       <r>  -17.6479    1.0000 </r>
       <r>  -14.7519    1.0000 </r>
       <r>  -14.7519    1.0000 </r>
       <r>  -10.1704    1.0000 </r>
       <r>  -10.1704    1.0000 </r>
       <r>   -5.3131    1.0000 </r>
       <r>   -5.3131    1.0000 </r>
       <r>   -0.5241    0.0000 </r>
       <r>   -0.5241    0.0000 </r>
       <r>    6.1790    0.0000 </r>
       <r>    6.1790    0.0000 </r>
      </set>
      <set comment="kpoint 242">
       <r>  -17.5359    1.0000 </r>
       <r>  -17.5359    1.0000 </r>
       <r>  -15.0407    1.0000 </r>
       <r>  -15.0407    1.0000 </r>
       <r>   -9.8904    1.0000 </r>
       <r>   -9.8904    1.0000 </r>
       <r>   -5.2639    1.0000 </r>
       <r>   -5.2639    1.0000 </r>
       <r>   -0.6683    0.0000 </r>
       <r>   -0.6683    0.0000 </r>
       <r>    5.7311    0.0000 </r>
       <r>    5.7311    0.0000 </r>
      </set>
      <set comment="kpoint 243">
       <r>  -17.4123    1.0000 </r>
       <r>  -17.4123    1.0000 </r>
       <r>  -15.3119    1.0000 </r>
       <r>  -15.3119    1.0000 </r>
       <r>   -9.6435    1.0000 </r>
       <r>   -9.6435    1.0000 </r>
       <r>   -5.2161    1.0000 </r>
       <r>   -5.2161    1.0000 </r>
       <r>   -0.8014    0.0000 </r>
       <r>   -0.8014    0.0000 </r>
       <r>    5.3434    0.0000 </r>
       <r>    5.3434    0.0000 </r>
      </set>
      <set comment="kpoint 244">
       <r>  -17.2826    1.0000 </r>
       <r>  -17.2826    1.0000 </r>
       <r>  -15.5578    1.0000 </r>
       <r>  -15.5578    1.0000 </r>
       <r>   -9.4392    1.0000 </r>
       <r>   -9.4392    1.0000 </r>
       <r>   -5.1734    1.0000 </r>
       <r>   -5.1734    1.0000 </r>
       <r>   -0.9151    0.0000 </r>
       <r>   -0.9151    0.0000 </r>
       <r>    5.0284    0.0000 </r>
       <r>    5.0284    0.0000 </r>
      </set>
      <set comment="kpoint 245">
       <r>  -17.1578    1.0000 </r>
       <r>  -17.1578    1.0000 </r>
       <r>  -15.7666    1.0000 </r>
       <r>  -15.7666    1.0000 </r>
       <r>   -9.2861    1.0000 </r>
       <r>   -9.2861    1.0000 </r>
       <r>   -5.1395    1.0000 </r>
       <r>   -5.1395    1.0000 </r>
       <r>   -1.0023    0.0000 </r>
       <r>   -1.0023    0.0000 </r>
       <r>    4.7956    0.0000 </r>
       <r>    4.7956    0.0000 </r>
      </set>
      <set comment="kpoint 246">
       <r>  -17.0591    1.0000 </r>
       <r>  -17.0591    1.0000 </r>
       <r>  -15.9159    1.0000 </r>
       <r>  -15.9159    1.0000 </r>
       <r>   -9.1912    1.0000 </r>
       <r>   -9.1912    1.0000 </r>
       <r>   -5.1176    1.0000 </r>
       <r>   -5.1176    1.0000 </r>
       <r>   -1.0570    0.0000 </r>
       <r>   -1.0570    0.0000 </r>
       <r>    4.6526    0.0000 </r>
       <r>    4.6526    0.0000 </r>
      </set>
      <set comment="kpoint 247">
       <r>  -17.0196    1.0000 </r>
       <r>  -17.0196    1.0000 </r>
       <r>  -15.9723    1.0000 </r>
       <r>  -15.9723    1.0000 </r>
       <r>   -9.1590    1.0000 </r>
       <r>   -9.1590    1.0000 </r>
       <r>   -5.1101    1.0000 </r>
       <r>   -5.1101    1.0000 </r>
       <r>   -1.0757    0.0000 </r>
       <r>   -1.0757    0.0000 </r>
       <r>    4.6044    0.0000 </r>
       <r>    4.6044    0.0000 </r>
      </set>
     </set>
    </set>
   </array>
  </eigenvalues>
  <separator name="orbital magnetization" >
   <v name="MAGDIPOLOUT">      0.00000000      0.00000000      0.00000000</v>
  </separator>
 </calculation>
 <structure name="finalpos" >
  <crystal>
   <varray name="basis" >
    <v>       4.27376912       0.00000000       0.00000000 </v>
    <v>       0.00000000       2.46717589       0.00000000 </v>
    <v>       0.00000000       0.00000000      19.99574157 </v>
   </varray>
   <i name="volume">    210.83790140 </i>
   <varray name="rec_basis" >
    <v>       0.23398550       0.00000000       0.00000000 </v>
    <v>       0.00000000       0.40532173       0.00000000 </v>
    <v>       0.00000000       0.00000000       0.05001065 </v>
   </varray>
  </crystal>
  <varray name="positions" >
   <v>      -0.00000176       0.00000000       0.00000000 </v>
   <v>       0.16666843       0.50000000      -0.00000000 </v>
   <v>       0.49999824       0.50000000       0.00000000 </v>
   <v>       0.66666843      -0.00000000      -0.00000000 </v>
  </varray>
 </structure>
</modeling>
