gr                                      
           1
     4.273769    0.000000    0.000000
     0.000000    2.467176    0.000000
     0.000000    0.000000   19.995742
   C 
   4
Direct configuration=     1
   0.00013158  0.00000000  0.00000000
   0.16653509  0.50000000  0.00000000
   0.50013158  0.50000000  0.00000000
   0.66653509  0.00000000  0.00000000
Direct configuration=     2
  -0.00053429 -0.00000000  0.00000000
   0.16720096  0.50000000  0.00000000
   0.49946571  0.50000000  0.00000000
   0.66720096 -0.00000000  0.00000000
Direct configuration=     3
  -0.00000059  0.00000000 -0.00000000
   0.16666725  0.50000000  0.00000000
   0.49999941  0.50000000 -0.00000000
   0.66666725 -0.00000000  0.00000000
Direct configuration=     4
  -0.00000177  0.00000000  0.00000000
   0.16666843  0.50000000 -0.00000000
   0.49999823  0.50000000  0.00000000
   0.66666843 -0.00000000 -0.00000000
Direct configuration=     5
  -0.00000174  0.00000000  0.00000000
   0.16666841  0.50000000 -0.00000000
   0.49999826  0.50000000  0.00000000
   0.66666841  0.00000000 -0.00000000
Direct configuration=     6
  -0.00000176  0.00000000  0.00000000
   0.16666842  0.50000000 -0.00000000
   0.49999824  0.50000000  0.00000000
   0.66666842  0.00000000 -0.00000000
Direct configuration=     7
  -0.00000176  0.00000000  0.00000000
   0.16666842  0.50000000 -0.00000000
   0.49999824  0.50000000  0.00000000
   0.66666842  0.00000000 -0.00000000
Direct configuration=     8
  -0.00000177  0.00000000  0.00000000
   0.16666843  0.50000000 -0.00000000
   0.49999823  0.50000000  0.00000000
   0.66666843 -0.00000000 -0.00000000
Direct configuration=     9
  -0.00000176  0.00000000  0.00000000
   0.16666843  0.50000000 -0.00000000
   0.49999824  0.50000000  0.00000000
   0.66666843 -0.00000000 -0.00000000
Direct configuration=    10
  -0.00000176  0.00000000  0.00000000
   0.16666843  0.50000000 -0.00000000
   0.49999824  0.50000000  0.00000000
   0.66666843 -0.00000000 -0.00000000
Direct configuration=    11
  -0.00000176  0.00000000  0.00000000
   0.16666843  0.50000000 -0.00000000
   0.49999824  0.50000000  0.00000000
   0.66666843 -0.00000000 -0.00000000
