    4    4  400    1
  0.5270948E+02  0.4380738E-09  0.2457116E-09  0.1958735E-08  0.5000000E-15
  1.000000000000000E-004
  CAR 
 gr                                      
     16    247     12
 
  0.0000000E+00  0.0000000E+00  0.0000000E+00  0.1157407E-02
    1      -22.079587
    2      -17.258932
    3      -15.831624
    4      -10.224553
    5       -8.802581
    6       -6.007806
    7       -5.726816
    8       -5.336741
    9       -1.186585
   10        0.544927
   11        1.342991
   12        1.736483
 
  0.4166667E-01  0.0000000E+00  0.0000000E+00  0.2314815E-02
    1      -22.069833
    2      -17.376876
    3      -15.698701
    4      -10.212978
    5       -8.793141
    6       -6.052104
    7       -5.746868
    8       -5.395408
    9       -1.112204
   10        0.558120
   11        1.356377
   12        1.750038
 
  0.8333333E-01  0.0000000E+00  0.0000000E+00  0.2314815E-02
    1      -22.040573
    2      -17.649951
    3      -15.380768
    4      -10.178274
    5       -8.764869
    6       -6.182884
    7       -5.805982
    8       -5.559576
    9       -0.901047
   10        0.597708
   11        1.396532
   12        1.790705
 
  0.1250000E+00  0.0000000E+00  0.0000000E+00  0.2314815E-02
    1      -21.991829
    2      -17.980024
    3      -14.976185
    4      -10.120498
    5       -8.717919
    6       -6.394211
    7       -5.901194
    8       -5.802048
    9       -0.580785
   10        0.663713
   11        1.463440
   12        1.858487
 
  0.1666667E+00  0.0000000E+00  0.0000000E+00  0.2314815E-02
    1      -21.923636
    2      -18.324636
    3      -14.527799
    4      -10.039749
    5       -8.652550
    6       -6.677415
    7       -6.094440
    8       -6.028050
    9       -0.180604
   10        0.756157
   11        1.557074
   12        1.953388
 
  0.2083333E+00  0.0000000E+00  0.0000000E+00  0.2314815E-02
    1      -21.836045
    2      -18.667392
    3      -14.052568
    4       -9.936168
    5       -8.569137
    6       -7.022381
    7       -6.414490
    8       -6.181178
    9        0.276072
   10        0.875057
   11        1.677391
   12        2.075413
 
  0.2500000E+00  0.0000000E+00  0.0000000E+00  0.2314815E-02
    1      -21.729120
    2      -19.001123
    3      -13.558406
    4       -9.809947
    5       -8.468179
    6       -7.418709
    7       -6.746707
    8       -6.354831
    9        0.772190
   10        1.020415
   11        1.824324
   12        2.224563
 
  0.2916667E+00  0.0000000E+00  0.0000000E+00  0.2314815E-02
    1      -21.602947
    2      -19.322228
    3      -13.049864
    4       -9.661334
    5       -8.350320
    6       -7.856519
    7       -7.080715
    8       -6.543338
    9        1.192215
   10        1.295309
   11        1.997767
   12        2.400836
 
  0.3333333E+00  0.0000000E+00  0.0000000E+00  0.2314815E-02
    1      -21.457629
    2      -19.628673
    3      -12.530171
    4       -9.490646
    5       -8.326898
    6       -8.216362
    7       -7.409554
    8       -6.741404
    9        1.390427
   10        1.835658
   11        2.197536
   12        2.604229
 
  0.3750000E+00  0.0000000E+00  0.0000000E+00  0.2314815E-02
    1      -21.293290
    2      -19.919194
    3      -12.002054
    4       -9.298278
    5       -8.822056
    6       -8.067297
    7       -7.728472
    8       -6.944268
    9        1.615004
   10        2.384073
   11        2.423287
   12        2.834732
 
  0.4166667E+00  0.0000000E+00  0.0000000E+00  0.2314815E-02
    1      -21.110082
    2      -20.192937
    3      -11.468148
    4       -9.335318
    5       -9.084729
    6       -8.034137
    7       -7.904334
    8       -7.147765
    9        1.865880
   10        2.674249
   11        2.926430
   12        3.092335
 
  0.4583333E+00  0.0000000E+00  0.0000000E+00  0.2314815E-02
    1      -20.908188
    2      -20.449301
    3      -10.931221
    4       -9.861013
    5       -8.850624
    6       -8.324155
    7       -7.728942
    8       -7.348317
    9        2.142970
   10        2.775281
   11        2.948165
   12        3.368068
 
  0.5000000E+00  0.0000000E+00  0.0000000E+00  0.1157407E-02
    1      -20.687834
    2      -20.687834
    3      -10.394341
    4      -10.394341
    5       -8.596759
    6       -8.596759
    7       -7.542893
    8       -7.542893
    9        2.446157
   10        2.446157
   11        3.234010
   12        3.234010
 
  0.0000000E+00  0.2777778E-01  0.0000000E+00  0.2314815E-02
    1      -22.065757
    2      -17.246926
    3      -15.819831
    4      -10.208140
    5       -8.865912
    6       -6.033874
    7       -5.785888
    8       -5.320054
    9       -1.189016
   10        0.563663
   11        1.361916
   12        1.755647
 
  0.4166667E-01  0.2777778E-01  0.0000000E+00  0.4629630E-02
    1      -22.056003
    2      -17.364752
    3      -15.687071
    4      -10.196569
    5       -8.856460
    6       -6.078882
    7       -5.804625
    8       -5.378834
    9       -1.114623
   10        0.576856
   11        1.375302
   12        1.769202
 
  0.8333333E-01  0.2777778E-01  0.0000000E+00  0.4629630E-02
    1      -22.026748
    2      -17.637606
    3      -15.369494
    4      -10.161876
    5       -8.828153
    6       -6.210495
    7       -5.861201
    8       -5.543270
    9       -0.903503
   10        0.616445
   11        1.415455
   12        1.809869
 
  0.1250000E+00  0.2777778E-01  0.0000000E+00  0.4629630E-02
    1      -21.978012
    2      -17.967466
    3      -14.965351
    4      -10.104120
    5       -8.781142
    6       -6.421186
    7       -5.954529
    8       -5.786031
    9       -0.583463
   10        0.682450
   11        1.482359
   12        1.877651
 
  0.1666667E+00  0.2777778E-01  0.0000000E+00  0.4629630E-02
    1      -21.909830
    2      -18.311893
    3      -14.517479
    4      -10.023397
    5       -8.715682
    6       -6.702105
    7       -6.080692
    8       -6.078649
    9       -0.183774
   10        0.774896
   11        1.575989
   12        1.972554
 
  0.2083333E+00  0.2777778E-01  0.0000000E+00  0.4629630E-02
    1      -21.822254
    2      -18.654488
    3      -14.042849
    4       -9.919851
    5       -8.632141
    6       -7.043689
    7       -6.398840
    8       -6.234084
    9        0.272121
   10        0.893799
   11        1.696301
   12        2.094580
 
  0.2500000E+00  0.2777778E-01  0.0000000E+00  0.4629630E-02
    1      -21.715348
    2      -18.988081
    3      -13.549387
    4       -9.793672
    5       -8.531012
    6       -7.436144
    7       -6.731122
    8       -6.408592
    9        0.767180
   10        1.039162
   11        1.843229
   12        2.243731
 
  0.2916667E+00  0.2777778E-01  0.0000000E+00  0.4629630E-02
    1      -21.589198
    2      -19.309067
    3      -13.041668
    4       -9.645109
    5       -8.412928
    6       -7.870032
    7       -7.065140
    8       -6.598246
    9        1.210968
   10        1.289001
   11        2.016668
   12        2.420007
 
  0.3333333E+00  0.2777778E-01  0.0000000E+00  0.4629630E-02
    1      -21.443907
    2      -19.615409
    3      -12.522943
    4       -9.474477
    5       -8.336705
    6       -8.278681
    7       -7.393950
    8       -6.797548
    9        1.409188
   10        1.827880
   11        2.216436
   12        2.623402
 
  0.3750000E+00  0.2777778E-01  0.0000000E+00  0.4629630E-02
    1      -21.279600
    2      -19.905840
    3      -11.995969
    4       -9.282173
    5       -8.828507
    6       -8.129249
    7       -7.712813
    8       -7.001612
    9        1.633774
   10        2.374829
   11        2.442193
   12        2.853910
 
  0.4166667E+00  0.2777778E-01  0.0000000E+00  0.4629630E-02
    1      -21.096429
    2      -20.179506
    3      -11.463411
    4       -9.338809
    5       -9.068693
    6       -8.018409
    7       -7.965827
    8       -7.206208
    9        1.884660
   10        2.693172
   11        2.916535
   12        3.111519
 
  0.4583333E+00  0.2777778E-01  0.0000000E+00  0.4629630E-02
    1      -20.894579
    2      -20.435801
    3      -10.928074
    4       -9.861939
    5       -8.834663
    6       -8.308350
    7       -7.789867
    8       -7.407727
    9        2.161762
   10        2.794117
   11        2.967098
   12        3.369660
 
  0.5000000E+00  0.2777778E-01  0.0000000E+00  0.2314815E-02
    1      -20.674276
    2      -20.674276
    3      -10.393068
    4      -10.393068
    5       -8.580877
    6       -8.580877
    7       -7.603128
    8       -7.603128
    9        2.464966
   10        2.464966
   11        3.252528
   12        3.252528
 
  0.0000000E+00  0.5555556E-01  0.0000000E+00  0.2314815E-02
    1      -22.024277
    2      -17.210911
    3      -15.784594
    4      -10.158935
    5       -9.050769
    6       -6.111691
    7       -5.958242
    8       -5.270012
    9       -1.197113
   10        0.619871
   11        1.418685
   12        1.813139
 
  0.4166667E-01  0.5555556E-01  0.0000000E+00  0.4629630E-02
    1      -22.014527
    2      -17.328388
    3      -15.652319
    4      -10.147376
    5       -9.041278
    6       -6.161593
    7       -5.970305
    8       -5.329143
    9       -1.122680
   10        0.633064
   11        1.432069
   12        1.826694
 
  0.8333333E-01  0.5555556E-01  0.0000000E+00  0.4629630E-02
    1      -21.985286
    2      -17.600585
    3      -15.335810
    4      -10.112718
    5       -9.012853
    6       -6.298523
    7       -6.016534
    8       -5.494405
    9       -0.911668
   10        0.672652
   11        1.472215
   12        1.867361
 
  0.1250000E+00  0.5555556E-01  0.0000000E+00  0.4629630E-02
    1      -21.936573
    2      -17.929811
    3      -14.933003
    4      -10.055020
    5       -8.965636
    6       -6.508003
    7       -6.103609
    8       -5.738052
    9       -0.592302
   10        0.738657
   11        1.539109
   12        1.935144
 
  0.1666667E+00  0.5555556E-01  0.0000000E+00  0.4629630E-02
    1      -21.868425
    2      -18.273681
    3      -14.486698
    4       -9.974380
    5       -8.899870
    6       -6.781796
    7       -6.228025
    8       -6.031359
    9       -0.194114
   10        0.831105
   11        1.632725
   12        2.030048
 
  0.2083333E+00  0.5555556E-01  0.0000000E+00  0.4629630E-02
    1      -21.780893
    2      -18.615796
    3      -14.013900
    4       -9.870938
    5       -8.815904
    6       -7.112613
    7       -6.382867
    8       -6.351977
    9        0.259387
   10        0.950014
   11        1.753021
   12        2.152076
 
  0.2500000E+00  0.5555556E-01  0.0000000E+00  0.4629630E-02
    1      -21.674043
    2      -18.948974
    3      -13.522588
    4       -9.744888
    5       -8.714206
    6       -7.492708
    7       -6.684458
    8       -6.560690
    9        0.751209
   10        1.095386
   11        1.899934
   12        2.301232
 
  0.2916667E+00  0.5555556E-01  0.0000000E+00  0.4629630E-02
    1      -21.547963
    2      -19.269601
    3      -13.017400
    4       -9.596476
    5       -8.595376
    6       -7.914085
    7       -7.018500
    8       -6.754513
    9        1.267207
   10        1.269053
   11        2.073359
   12        2.477513
 
  0.3333333E+00  0.5555556E-01  0.0000000E+00  0.4629630E-02
    1      -21.402753
    2      -19.575632
    3      -12.501663
    4       -9.426018
    5       -8.460171
    6       -8.368959
    7       -7.347219
    8       -6.958173
    9        1.465443
   10        1.803406
   11        2.273125
   12        2.680917
 
  0.3750000E+00  0.5555556E-01  0.0000000E+00  0.4629630E-02
    1      -21.238543
    2      -19.865793
    3      -11.978221
    4       -9.233907
    5       -8.850107
    6       -8.309523
    7       -7.665914
    8       -7.166394
    9        1.690048
   10        2.345747
   11        2.498900
   12        2.911435
 
  0.4166667E+00  0.5555556E-01  0.0000000E+00  0.4629630E-02
    1      -21.055484
    2      -20.139224
    3      -11.449847
    4       -9.351047
    5       -9.020640
    6       -8.144578
    7       -7.971298
    8       -7.374739
    9        1.940956
   10        2.749929
   11        2.884802
   12        3.169059
 
  0.4583333E+00  0.5555556E-01  0.0000000E+00  0.4629630E-02
    1      -20.853765
    2      -20.395317
    3      -10.919465
    4       -9.866094
    5       -8.786837
    6       -8.261004
    7       -7.966734
    8       -7.579522
    9        2.218085
   10        2.850531
   11        3.023892
   12        3.364974
 
  0.5000000E+00  0.5555556E-01  0.0000000E+00  0.2314815E-02
    1      -20.633616
    2      -20.633616
    3      -10.390318
    4      -10.390318
    5       -8.533289
    6       -8.533289
    7       -7.777692
    8       -7.777692
    9        2.521325
   10        2.521325
   11        3.307824
   12        3.307824
 
  0.0000000E+00  0.8333333E-01  0.0000000E+00  0.2314815E-02
    1      -21.955179
    2      -17.150900
    3      -15.726357
    4      -10.077044
    5       -9.343199
    6       -6.240083
    7       -6.230821
    8       -5.186682
    9       -1.213294
   10        0.713550
   11        1.513275
   12        1.908961
 
  0.4166667E-01  0.8333333E-01  0.0000000E+00  0.4629630E-02
    1      -21.945438
    2      -17.267812
    3      -15.594884
    4      -10.065505
    5       -9.333629
    6       -6.324874
    7       -6.205131
    8       -5.246432
    9       -1.138778
   10        0.726741
   11        1.526654
   12        1.922516
 
  0.8333333E-01  0.8333333E-01  0.0000000E+00  0.4629630E-02
    1      -21.916220
    2      -17.538937
    3      -15.280168
    4      -10.030908
    5       -9.304964
    6       -6.472812
    7       -6.232234
    8       -5.413143
    9       -0.927928
   10        0.766324
   11        1.566788
   12        1.963182
 
  0.1250000E+00  0.8333333E-01  0.0000000E+00  0.4629630E-02
    1      -21.867547
    2      -17.867113
    3      -14.879636
    4       -9.973311
    5       -9.257330
    6       -6.677818
    7       -6.311655
    8       -5.658334
    9       -0.609709
   10        0.832322
   11        1.633663
   12        2.030964
 
  0.1666667E+00  0.8333333E-01  0.0000000E+00  0.4629630E-02
    1      -21.799457
    2      -18.210057
    3      -14.436031
    4       -9.892811
    5       -9.190944
    6       -6.937170
    7       -6.435990
    8       -5.952831
    9       -0.214109
   10        0.924765
   11        1.727253
   12        2.125868
 
  0.2083333E+00  0.8333333E-01  0.0000000E+00  0.4629630E-02
    1      -21.711999
    2      -18.551368
    3      -13.966412
    4       -9.789550
    5       -9.106120
    6       -7.247361
    7       -6.596078
    8       -6.274177
    9        0.235257
   10        1.043672
   11        1.847520
   12        2.247898
 
  0.2500000E+00  0.8333333E-01  0.0000000E+00  0.4629630E-02
    1      -21.605243
    2      -18.883851
    3      -13.478856
    4       -9.663720
    5       -9.003277
    6       -7.603942
    7       -6.782369
    8       -6.606986
    9        0.721481
   10        1.189047
   11        1.994401
   12        2.397058
 
  0.2916667E+00  0.8333333E-01  0.0000000E+00  0.4629630E-02
    1      -21.479276
    2      -19.203878
    3      -12.978117
    4       -9.515569
    5       -8.882952
    6       -8.001504
    7       -6.986055
    8       -6.941062
    9        1.232434
   10        1.360875
   11        2.167800
   12        2.573346
 
  0.3333333E+00  0.8333333E-01  0.0000000E+00  0.4629630E-02
    1      -21.334203
    2      -19.509387
    3      -12.467666
    4       -9.345408
    5       -8.745823
    6       -8.433952
    7       -7.269610
    8       -7.199649
    9        1.559124
   10        1.758884
   11        2.367557
   12        2.776759
 
  0.3750000E+00  0.8333333E-01  0.0000000E+00  0.4629630E-02
    1      -21.170154
    2      -19.799096
    3      -11.950521
    4       -9.153631
    5       -8.894946
    6       -8.592729
    7       -7.588008
    8       -7.417087
    9        1.783743
   10        2.292929
   11        2.593362
   12        3.007290
 
  0.4166667E+00  0.8333333E-01  0.0000000E+00  0.4629630E-02
    1      -20.987284
    2      -20.072136
    3      -11.429660
    4       -9.378308
    5       -8.940729
    6       -8.424704
    7       -7.893020
    8       -7.633563
    9        2.034666
   10        2.825661
   11        2.844487
   12        3.264931
 
  0.4583333E+00  0.8333333E-01  0.0000000E+00  0.4629630E-02
    1      -20.785785
    2      -20.327888
    3      -10.908249
    4       -9.878310
    5       -8.707320
    6       -8.243018
    7       -8.182318
    8       -7.845280
    9        2.311810
   10        2.944310
   11        3.118529
   12        3.329272
 
  0.5000000E+00  0.8333333E-01  0.0000000E+00  0.2314815E-02
    1      -20.565891
    2      -20.565891
    3      -10.389805
    4      -10.389805
    5       -8.454183
    6       -8.454183
    7       -8.049232
    8       -8.049232
    9        2.615070
   10        2.615070
   11        3.398594
   12        3.398594
 
  0.0000000E+00  0.1111111E+00  0.0000000E+00  0.2314815E-02
    1      -21.858526
    2      -17.066913
    3      -15.645955
    4       -9.962648
    5       -9.723865
    6       -6.585898
    7       -6.417056
    8       -5.070174
    9       -1.241589
   10        0.844695
   11        1.645646
   12        2.043112
 
  0.4166667E-01  0.1111111E+00  0.0000000E+00  0.4629630E-02
    1      -21.848795
    2      -17.183075
    3      -15.515593
    4       -9.951139
    5       -9.714155
    6       -6.639045
    7       -6.419222
    8       -5.130869
    9       -1.166915
   10        0.857882
   11        1.659018
   12        2.056666
 
  0.8333333E-01  0.1111111E+00  0.0000000E+00  0.4629630E-02
    1      -21.819611
    2      -17.452743
    3      -15.203423
    4       -9.916630
    5       -9.685058
    6       -6.772925
    7       -6.449580
    8       -5.299779
    9       -0.956231
   10        0.897451
   11        1.699133
   12        2.097330
 
  0.1250000E+00  0.1111111E+00  0.0000000E+00  0.4629630E-02
    1      -21.770995
    2      -17.779468
    3      -14.806202
    4       -9.859180
    5       -9.636675
    6       -6.963212
    7       -6.527430
    8       -5.547281
    9       -0.639649
   10        0.963430
   11        1.765976
   12        2.165109
 
  0.1666667E+00  0.1111111E+00  0.0000000E+00  0.4629630E-02
    1      -21.702984
    2      -18.121118
    3      -14.366589
    4       -9.778886
    5       -9.569178
    6       -7.200543
    7       -6.654041
    8       -5.843531
    9       -0.247836
   10        1.055849
   11        1.859523
   12        2.260010
 
  0.2083333E+00  0.1111111E+00  0.0000000E+00  0.4629630E-02
    1      -21.615631
    2      -18.461300
    3      -13.901737
    4       -9.675890
    5       -9.482813
    6       -7.480652
    7       -6.823046
    8       -6.165932
    9        0.195458
   10        1.174733
   11        1.979737
   12        2.382039
 
  0.2500000E+00  0.1111111E+00  0.0000000E+00  0.4629630E-02
    1      -21.509008
    2      -18.792804
    3      -13.419873
    4       -9.550383
    5       -9.377907
    6       -7.801214
    7       -7.024425
    8       -6.499197
    9        0.673454
   10        1.320089
   11        2.126562
   12        2.531200
 
  0.2916667E+00  0.1111111E+00  0.0000000E+00  0.4629630E-02
    1      -21.383200
    2      -19.111981
    3      -12.925955
    4       -9.402612
    5       -9.254877
    6       -8.160278
    7       -7.247022
    8       -6.833292
    9        1.174267
   10        1.491905
   11        2.299913
   12        2.707492
 
  0.3333333E+00  0.1111111E+00  0.0000000E+00  0.4629630E-02
    1      -21.238319
    2      -19.416754
    3      -12.423706
    4       -9.232888
    5       -9.114244
    6       -8.555118
    7       -7.480572
    8       -7.161567
    9        1.689006
   10        1.690145
   11        2.499645
   12        2.910912
 
  0.3750000E+00  0.1111111E+00  0.0000000E+00  0.4629630E-02
    1      -21.074496
    2      -19.705824
    3      -11.916458
    4       -9.041602
    5       -8.981738
    6       -8.956650
    7       -7.716869
    8       -7.479508
    9        1.914756
   10        2.210399
   11        2.725486
   12        3.141454
 
  0.4166667E+00  0.1111111E+00  0.0000000E+00  0.4629630E-02
    1      -20.891892
    2      -19.978311
    3      -11.407571
    4       -9.435079
    5       -8.829239
    6       -8.782881
    7       -7.949936
    8       -7.783958
    9        2.165668
   10        2.731447
   11        2.976771
   12        3.399109
 
  0.4583333E+00  0.1111111E+00  0.0000000E+00  0.4629630E-02
    1      -20.690704
    2      -20.233584
    3      -10.900678
    4       -9.909604
    5       -8.596411
    6       -8.593911
    7       -8.175605
    8       -8.072643
    9        2.442794
   10        3.075237
   11        3.240225
   12        3.250975
 
  0.5000000E+00  0.1111111E+00  0.0000000E+00  0.2314815E-02
    1      -20.471169
    2      -20.471169
    3      -10.399834
    4      -10.399834
    5       -8.390962
    6       -8.390962
    7       -8.343885
    8       -8.343885
    9        2.746029
   10        2.746029
   11        3.517261
   12        3.517261
 
  0.0000000E+00  0.1388889E+00  0.0000000E+00  0.2314815E-02
    1      -21.734404
    2      -16.958980
    3      -15.544797
    4      -10.171580
    5       -9.816008
    6       -7.004756
    7       -6.639786
    8       -4.920644
    9       -1.287579
   10        1.013295
   11        1.815738
   12        2.215595
 
  0.4166667E-01  0.1388889E+00  0.0000000E+00  0.4629630E-02
    1      -21.724687
    2      -17.074250
    3      -15.415846
    4      -10.161628
    5       -9.804539
    6       -7.050748
    7       -6.644591
    8       -4.982714
    9       -1.212601
   10        1.026473
   11        1.829100
   12        2.229147
 
  0.8333333E-01  0.1388889E+00  0.0000000E+00  0.4629630E-02
    1      -21.695545
    2      -17.342133
    3      -15.107039
    4      -10.131789
    5       -9.770150
    6       -7.174512
    7       -6.672112
    8       -5.154779
    9       -1.001976
   10        1.066018
   11        1.869183
   12        2.269806
 
  0.1250000E+00  0.1388889E+00  0.0000000E+00  0.4629630E-02
    1      -21.647001
    2      -17.667026
    3      -14.714354
    4      -10.082115
    5       -9.712900
    6       -7.353907
    7       -6.741095
    8       -5.405538
    9       -0.687499
   10        1.131958
   11        1.935974
   12        2.337578
 
  0.1666667E+00  0.1388889E+00  0.0000000E+00  0.4629630E-02
    1      -21.579094
    2      -18.007014
    3      -14.280347
    4      -10.012692
    5       -9.632887
    6       -7.574767
    7       -6.859872
    8       -5.704201
    9       -0.300779
   10        1.224327
   11        2.029449
   12        2.432470
 
  0.2083333E+00  0.1388889E+00  0.0000000E+00  0.4629630E-02
    1      -21.491878
    2      -18.345734
    3      -13.822319
    4       -9.923638
    5       -9.530252
    6       -7.829399
    7       -7.027889
    8       -6.028009
    9        0.134285
   10        1.343156
   11        2.149575
   12        2.554491
 
  0.2500000E+00  0.1388889E+00  0.0000000E+00  0.4629630E-02
    1      -21.385423
    2      -18.675965
    3      -13.348757
    4       -9.815099
    5       -9.405188
    6       -8.114143
    7       -7.238522
    8       -6.361846
    9        0.601132
   10        1.488459
   11        2.296302
   12        2.703646
 
  0.2916667E+00  0.1388889E+00  0.0000000E+00  0.4629630E-02
    1      -21.259824
    2      -18.994037
    3      -12.864971
    4       -9.687242
    5       -9.257938
    6       -8.428110
    7       -7.481042
    8       -6.695913
    9        1.088214
   10        1.660227
   11        2.469555
   12        2.879936
 
  0.3333333E+00  0.1388889E+00  0.0000000E+00  0.4629630E-02
    1      -21.115190
    2      -19.297851
    3      -12.375148
    4       -9.540254
    5       -9.088813
    6       -8.772033
    7       -7.742610
    8       -7.023764
    9        1.587050
   10        1.858423
   11        2.669218
   12        3.083359
 
  0.3750000E+00  0.1388889E+00  0.0000000E+00  0.4629630E-02
    1      -20.951660
    2      -19.586089
    3      -11.883219
    4       -9.374335
    5       -9.146724
    6       -8.898201
    7       -8.010577
    8       -7.341038
    9        2.082989
   10        2.090941
   11        2.895081
   12        3.313907
 
  0.4166667E+00  0.1388889E+00  0.0000000E+00  0.4629630E-02
    1      -20.769401
    2      -19.857856
    3      -11.393299
    4       -9.551521
    5       -9.189707
    6       -8.686581
    7       -8.274592
    8       -7.644685
    9        2.333849
   10        2.594111
   11        3.146611
   12        3.571571
 
  0.4583333E+00  0.1388889E+00  0.0000000E+00  0.4629630E-02
    1      -20.568615
    2      -20.112505
    3      -10.909934
    4       -9.983560
    5       -8.986656
    6       -8.527623
    7       -8.454556
    8       -7.932509
    9        2.610909
   10        3.090531
   11        3.243144
   12        3.421174
 
  0.5000000E+00  0.1388889E+00  0.0000000E+00  0.2314815E-02
    1      -20.349549
    2      -20.349549
    3      -10.438191
    4      -10.438191
    5       -8.765647
    6       -8.765647
    7       -8.202879
    8       -8.202879
    9        2.914054
   10        2.914054
   11        3.555233
   12        3.555233
 
  0.0000000E+00  0.1666667E+00  0.0000000E+00  0.2314815E-02
    1      -21.582926
    2      -16.827144
    3      -15.425229
    4      -10.665572
    5       -9.637472
    6       -7.470137
    7       -6.904641
    8       -4.738300
    9       -1.358191
   10        1.219326
   11        2.023466
   12        2.426408
 
  0.4166667E-01  0.1666667E+00  0.0000000E+00  0.4629630E-02
    1      -21.573228
    2      -16.941449
    3      -15.297994
    4      -10.655205
    5       -9.626056
    6       -7.514808
    7       -6.905754
    8       -4.802345
    9       -1.282624
   10        1.232492
   11        2.036812
   12        2.439958
 
  0.8333333E-01  0.1666667E+00  0.0000000E+00  0.4629630E-02
    1      -21.544139
    2      -17.207295
    3      -14.993516
    4      -10.624089
    5       -9.591825
    6       -7.636390
    7       -6.920976
    8       -4.978865
    9       -1.071701
   10        1.272001
   11        2.076843
   12        2.480610
 
  0.1250000E+00  0.1666667E+00  0.0000000E+00  0.4629630E-02
    1      -21.495684
    2      -17.530003
    3      -14.606974
    4      -10.572179
    5       -9.534839
    6       -7.812659
    7       -6.970707
    8       -5.234094
    9       -0.759670
   10        1.337880
   11        2.143547
   12        2.548369
 
  0.1666667E+00  0.1666667E+00  0.0000000E+00  0.4629630E-02
    1      -21.427903
    2      -17.867962
    3      -14.180837
    4      -10.499387
    5       -9.455195
    6       -8.026828
    7       -7.068179
    8       -5.535964
    9       -0.379398
   10        1.430166
   11        2.236900
   12        2.643244
 
  0.2083333E+00  0.1666667E+00  0.0000000E+00  0.4629630E-02
    1      -21.340853
    2      -18.204876
    3      -13.732668
    4      -10.405560
    5       -9.353037
    6       -8.268478
    7       -7.218122
    8       -5.861559
    9        0.045112
   10        1.548897
   11        2.356870
   12        2.765245
 
  0.2500000E+00  0.1666667E+00  0.0000000E+00  0.4629630E-02
    1      -21.234608
    2      -18.533526
    3      -13.271433
    4      -10.290449
    5       -9.228556
    6       -8.531499
    7       -7.418738
    8       -6.196049
    9        0.497673
   10        1.694098
   11        2.503407
   12        2.914382
 
  0.2916667E+00  0.1666667E+00  0.0000000E+00  0.4629630E-02
    1      -21.109263
    2      -18.850223
    3      -12.803130
    4      -10.153666
    5       -9.081996
    6       -8.812910
    7       -7.663259
    8       -6.529975
    9        0.967235
   10        1.865765
   11        2.676450
   12        3.090659
 
  0.3333333E+00  0.1666667E+00  0.0000000E+00  0.4629630E-02
    1      -20.964935
    2      -19.152843
    3      -12.332877
    4       -9.994635
    5       -9.112373
    6       -8.913666
    7       -7.941132
    8       -6.857174
    9        1.445837
   10        2.063867
   11        2.875912
   12        3.294075
 
  0.3750000E+00  0.1666667E+00  0.0000000E+00  0.4629630E-02
    1      -20.801768
    2      -19.440046
    3      -11.865815
    4       -9.812548
    5       -9.431825
    6       -8.723950
    7       -8.239196
    8       -7.173491
    9        1.927366
   10        2.288340
   11        3.101664
   12        3.524623
 
  0.4166667E+00  0.1666667E+00  0.0000000E+00  0.4629630E-02
    1      -20.619937
    2      -19.710916
    3      -11.407517
    4       -9.774666
    5       -9.606413
    6       -8.543191
    7       -8.513323
    8       -7.476020
    9        2.406819
   10        2.539098
   11        3.353461
   12        3.782291
 
  0.4583333E+00  0.1666667E+00  0.0000000E+00  0.4629630E-02
    1      -20.419650
    2      -19.964789
    3      -10.964015
    4      -10.144131
    5       -9.375313
    6       -8.839847
    7       -8.282375
    8       -7.762659
    9        2.816035
   10        2.879859
   11        3.447901
   12        3.628894
 
  0.5000000E+00  0.1666667E+00  0.0000000E+00  0.2314815E-02
    1      -20.201164
    2      -20.201164
    3      -10.541294
    4      -10.541294
    5       -9.119122
    6       -9.119122
    7       -8.031843
    8       -8.031843
    9        3.119020
   10        3.119020
   11        3.342337
   12        3.342337
 