       N       E                     dE             d eps       ncg     rms          rms(c)
DAV:   1     0.187043530935E+03    0.18704E+03   -0.10607E+04  5928   0.275E+03
DAV:   2    -0.883262594742E+01   -0.19588E+03   -0.17316E+03 10452   0.260E+02
DAV:   3    -0.380297685362E+02   -0.29197E+02   -0.28428E+02  7340   0.119E+02    0.706E+00
RMM:   4    -0.375722393365E+02    0.45753E+00   -0.10014E+01  5928   0.268E+01    0.411E+00
RMM:   5    -0.368666035735E+02    0.70564E+00   -0.26816E+00  5932   0.112E+01    0.707E-01
RMM:   6    -0.368683277527E+02   -0.17242E-02   -0.83388E-02  6386   0.203E+00    0.498E-01
RMM:   7    -0.368595283548E+02    0.87994E-02   -0.31615E-02  5950   0.154E+00    0.324E-01
RMM:   8    -0.368548351823E+02    0.46932E-02   -0.58917E-03  5931   0.511E-01    0.139E-01
RMM:   9    -0.368545227858E+02    0.31240E-03   -0.19783E-02  5928   0.833E-01    0.149E-01
RMM:  10    -0.368544647276E+02    0.58058E-04   -0.19496E-03  5928   0.321E-01    0.265E-02
RMM:  11    -0.368567390909E+02   -0.22744E-02   -0.70233E-04  5928   0.178E-01    0.415E-02
RMM:  12    -0.368572440428E+02   -0.50495E-03   -0.19970E-04  5944   0.936E-02    0.462E-03
RMM:  13    -0.368574927628E+02   -0.24872E-03   -0.42407E-05  6051   0.329E-02    0.249E-03
RMM:  14    -0.368575753196E+02   -0.82557E-04   -0.99284E-06  6016   0.131E-02    0.832E-04
RMM:  15    -0.368575888401E+02   -0.13520E-04   -0.18069E-06  5938   0.725E-03    0.237E-03
RMM:  16    -0.368576018561E+02   -0.13016E-04   -0.22105E-06  5928   0.986E-03    0.152E-03
RMM:  17    -0.368576079110E+02   -0.60549E-05   -0.27800E-07  5928   0.323E-03    0.397E-04
RMM:  18    -0.368576089445E+02   -0.10335E-05   -0.19241E-08  5985   0.118E-03    0.838E-05
RMM:  19    -0.368576096922E+02   -0.74772E-06   -0.99138E-09  5177   0.413E-04    0.134E-05
RMM:  20    -0.368576097260E+02   -0.33844E-07   -0.57937E-10  4526   0.130E-04    0.221E-05
RMM:  21    -0.368576097378E+02   -0.11792E-07   -0.17791E-10  4296   0.792E-05    0.900E-06
RMM:  22    -0.368576097376E+02    0.19691E-09   -0.19178E-11  3897   0.503E-05    0.537E-07
RMM:  23    -0.368576097382E+02   -0.60231E-09   -0.17442E-11  3624   0.393E-05    0.148E-06
RMM:  24    -0.368576097382E+02   -0.20236E-10   -0.61720E-12  3162   0.298E-05
   1 F= -.36857610E+02 E0= -.36857610E+02  d E =-.368576E+02
       N       E                     dE             d eps       ncg     rms          rms(c)
DAV:   1    -0.368576097100E+02    0.28221E-07   -0.27000E-06  6340   0.154E-02    0.308E-04
RMM:   2    -0.368576097106E+02   -0.59060E-09   -0.43607E-08  5971   0.184E-03    0.224E-04
RMM:   3    -0.368576097073E+02    0.32883E-08   -0.73255E-09  5962   0.688E-04    0.601E-05
RMM:   4    -0.368576097076E+02   -0.24932E-09   -0.49034E-10  5086   0.179E-04    0.171E-05
RMM:   5    -0.368576097073E+02    0.26171E-09   -0.23293E-11  3779   0.578E-05    0.685E-06
RMM:   6    -0.368576097075E+02   -0.24409E-09   -0.12696E-11  3385   0.422E-05    0.161E-06
RMM:   7    -0.368576097072E+02    0.35561E-09   -0.46346E-12  3140   0.340E-05    0.598E-07
RMM:   8    -0.368576097074E+02   -0.23715E-09   -0.39037E-12  2960   0.301E-05    0.492E-07
RMM:   9    -0.368576097072E+02    0.26432E-09   -0.37358E-12  2616   0.263E-05    0.472E-07
RMM:  10    -0.368576097074E+02   -0.26137E-09   -0.17841E-12  2411   0.234E-05    0.159E-07
RMM:  11    -0.368576097072E+02    0.20202E-09   -0.37519E-13  2253   0.212E-05    0.762E-08
RMM:  12    -0.368576097072E+02   -0.33651E-10   -0.16183E-13  2123   0.203E-05
   2 F= -.36857610E+02 E0= -.36857610E+02  d E =0.309968E-07
       N       E                     dE             d eps       ncg     rms          rms(c)
DAV:   1    -0.368576097362E+02   -0.28979E-07   -0.16679E-06  6792   0.121E-02    0.243E-04
RMM:   2    -0.368576097390E+02   -0.27909E-08   -0.25953E-08  5957   0.144E-03    0.176E-04
RMM:   3    -0.368576097401E+02   -0.11349E-08   -0.44458E-09  5941   0.536E-04    0.457E-05
RMM:   4    -0.368576097395E+02    0.56991E-09   -0.27008E-10  4218   0.138E-04    0.130E-05
RMM:   5    -0.368576097396E+02   -0.88789E-10   -0.18850E-11  3677   0.576E-05
   3 F= -.36857610E+02 E0= -.36857610E+02  d E =-.323904E-07
       N       E                     dE             d eps       ncg     rms          rms(c)
DAV:   1    -0.368576097391E+02    0.46998E-09    0.52768E-09  4892   0.988E-05    0.112E-06
RMM:   2    -0.368576097395E+02   -0.43485E-09    0.15993E-12  3145   0.307E-05    0.604E-07
RMM:   3    -0.368576097394E+02    0.99703E-10   -0.24547E-12  2829   0.305E-05    0.151E-07
RMM:   4    -0.368576097395E+02   -0.68553E-10   -0.18683E-12  2539   0.283E-05    0.152E-07
RMM:   5    -0.368576097396E+02   -0.13256E-09   -0.31589E-12  2295   0.250E-05    0.104E-07
RMM:   6    -0.368576097397E+02   -0.59572E-10   -0.25371E-12  2095   0.227E-05
   4 F= -.36857610E+02 E0= -.36857610E+02  d E =-.370619E-10
       N       E                     dE             d eps       ncg     rms          rms(c)
DAV:   1    -0.368576097392E+02    0.41769E-09    0.53453E-09  4416   0.481E-05    0.583E-07
RMM:   2    -0.368576097394E+02   -0.21100E-09    0.69716E-13  1480   0.142E-05    0.359E-07
RMM:   3    -0.368576097397E+02   -0.31059E-09   -0.13261E-13  1421   0.141E-05    0.102E-08
RMM:   4    -0.368576097398E+02   -0.10118E-09   -0.72909E-13  1393   0.142E-05    0.880E-09
RMM:   5    -0.368576097395E+02    0.34493E-09    0.21489E-13  1364   0.139E-05    0.723E-09
RMM:   6    -0.368576097396E+02   -0.10743E-09    0.42197E-13  1348   0.138E-05    0.722E-09
RMM:   7    -0.368576097397E+02   -0.92768E-10    0.88818E-14  1332   0.137E-05
   5 F= -.36857610E+02 E0= -.36857610E+02  d E =-.795808E-12
       N       E                     dE             d eps       ncg     rms          rms(c)
DAV:   1    -0.368576097392E+02    0.39415E-09    0.53710E-09  4544   0.194E-05    0.408E-07
RMM:   2    -0.368576097397E+02   -0.55172E-09   -0.19162E-14  1002   0.673E-06    0.251E-07
RMM:   3    -0.368576097398E+02   -0.27171E-10   -0.79237E-14  1055   0.671E-06    0.473E-09
RMM:   4    -0.368576097398E+02   -0.45475E-12   -0.97535E-14   916   0.671E-06    0.210E-09
RMM:   5    -0.368576097393E+02    0.43804E-09    0.90463E-14   890   0.671E-06    0.157E-09
RMM:   6    -0.368576097393E+02   -0.19440E-10    0.32443E-14   991   0.671E-06
   6 F= -.36857610E+02 E0= -.36857610E+02  d E =0.326168E-09
       N       E                     dE             d eps       ncg     rms          rms(c)
DAV:   1    -0.368576097387E+02    0.61652E-09    0.12903E-09  6604   0.598E-04    0.119E-05
RMM:   2    -0.368576097392E+02   -0.47839E-09   -0.29235E-11  3248   0.709E-05    0.843E-06
RMM:   3    -0.368576097391E+02    0.75715E-10   -0.18937E-11  3492   0.590E-05    0.238E-06
RMM:   4    -0.368576097392E+02   -0.47066E-10   -0.11326E-11  2848   0.396E-05    0.834E-07
RMM:   5    -0.368576097391E+02    0.30241E-10   -0.30627E-12  2562   0.307E-05
   7 F= -.36857610E+02 E0= -.36857610E+02  d E =0.216460E-09
       N       E                     dE             d eps       ncg     rms          rms(c)
DAV:   1    -0.368576097388E+02    0.37676E-09    0.96249E-10  6648   0.623E-04    0.130E-05
RMM:   2    -0.368576097394E+02   -0.62960E-09   -0.31149E-11  3202   0.710E-05    0.913E-06
RMM:   3    -0.368576097395E+02   -0.10778E-09   -0.19440E-11  3526   0.600E-05    0.241E-06
RMM:   4    -0.368576097395E+02    0.67644E-10   -0.13365E-11  2802   0.406E-05    0.844E-07
RMM:   5    -0.368576097395E+02   -0.36380E-10   -0.56595E-12  2573   0.319E-05
   8 F= -.36857610E+02 E0= -.36857610E+02  d E =-.359591E-09
       N       E                     dE             d eps       ncg     rms          rms(c)
DAV:   1    -0.368576097389E+02    0.58662E-09    0.53567E-09  4364   0.392E-05    0.889E-07
RMM:   2    -0.368576097394E+02   -0.51432E-09   -0.11752E-13  1222   0.141E-05    0.551E-07
RMM:   3    -0.368576097398E+02   -0.42246E-09   -0.53813E-13  1309   0.144E-05    0.143E-08
RMM:   4    -0.368576097398E+02    0.14666E-10   -0.84106E-13  1225   0.144E-05    0.964E-09
RMM:   5    -0.368576097398E+02   -0.12506E-11   -0.10501E-12   781   0.143E-05
   9 F= -.36857610E+02 E0= -.36857610E+02  d E =-.300361E-09
       N       E                     dE             d eps       ncg     rms          rms(c)
DAV:   1    -0.368576097392E+02    0.55161E-09    0.53690E-09  3756   0.199E-05    0.282E-07
RMM:   2    -0.368576097398E+02   -0.53478E-09   -0.13430E-13   315   0.645E-06    0.173E-07
RMM:   3    -0.368576097398E+02   -0.22737E-11    0.27608E-13   409   0.642E-06    0.431E-09
RMM:   4    -0.368576097393E+02    0.44406E-09    0.69492E-14   330   0.644E-06    0.208E-09
RMM:   5    -0.368576097394E+02   -0.27626E-10    0.12550E-13   836   0.638E-06
  10 F= -.36857610E+02 E0= -.36857610E+02  d E =0.432237E-09
