<?xml version="1.0" encoding="ISO-8859-1"?>
<modeling>
 <generator>
  <i name="program" type="string">vasp </i>
  <i name="version" type="string">5.3.5  </i>
  <i name="subversion" type="string">31Mar14 (build Mar 02 2015 18:14:16) complex                          parallel </i>
  <i name="platform" type="string">LinuxIFC </i>
  <i name="date" type="string">2018 08 09 </i>
  <i name="time" type="string">14:20:42 </i>
 </generator>
 <incar>
  <i type="string" name="SYSTEM">  gr</i>
  <i type="string" name="PREC">accurate : accuracy</i>
  <i type="string" name="ALGO"> FAST.</i>
  <i type="int" name="NELM">   100</i>
  <i type="int" name="NELMDL">    -3</i>
  <i type="int" name="NELMIN">     5</i>
  <i type="int" name="IBRION">     1</i>
  <i name="EDIFF">      0.00000000</i>
  <i name="EDIFFG">     -0.00000100</i>
  <i type="int" name="NSW">   400</i>
  <i type="int" name="ISIF">     2</i>
  <i name="ENCUT">   2000.00000000</i>
  <i type="int" name="ISMEAR">     0</i>
  <i name="SIGMA">      0.05000000</i>
  <i type="int" name="NWRITE">     2</i>
  <i type="logical" name="LWAVE"> F  </i>
  <i type="logical" name="LCHARG"> F  </i>
  <i type="int" name="NELM">   100</i>
 </incar>
 <kpoints>
  <generation param="Gamma">
   <v type="int" name="divisions">      24       36        1 </v>
   <v name="usershift">      0.00000000       0.00000000       0.00000000 </v>
   <v name="genvec1">      0.04166667       0.00000000       0.00000000 </v>
   <v name="genvec2">      0.00000000       0.02777778       0.00000000 </v>
   <v name="genvec3">      0.00000000       0.00000000       1.00000000 </v>
   <v name="shift">      0.00000000       0.00000000       0.00000000 </v>
  </generation>
  <varray name="kpointlist" >
   <v>       0.00000000       0.00000000       0.00000000 </v>
   <v>       0.04166667       0.00000000       0.00000000 </v>
   <v>       0.08333333       0.00000000       0.00000000 </v>
   <v>       0.12500000       0.00000000       0.00000000 </v>
   <v>       0.16666667       0.00000000       0.00000000 </v>
   <v>       0.20833333       0.00000000       0.00000000 </v>
   <v>       0.25000000       0.00000000       0.00000000 </v>
   <v>       0.29166667       0.00000000       0.00000000 </v>
   <v>       0.33333333       0.00000000       0.00000000 </v>
   <v>       0.37500000       0.00000000       0.00000000 </v>
   <v>       0.41666667       0.00000000       0.00000000 </v>
   <v>       0.45833333       0.00000000       0.00000000 </v>
   <v>       0.50000000       0.00000000       0.00000000 </v>
   <v>       0.00000000       0.02777778       0.00000000 </v>
   <v>       0.04166667       0.02777778       0.00000000 </v>
   <v>       0.08333333       0.02777778       0.00000000 </v>
   <v>       0.12500000       0.02777778       0.00000000 </v>
   <v>       0.16666667       0.02777778       0.00000000 </v>
   <v>       0.20833333       0.02777778       0.00000000 </v>
   <v>       0.25000000       0.02777778       0.00000000 </v>
   <v>       0.29166667       0.02777778       0.00000000 </v>
   <v>       0.33333333       0.02777778       0.00000000 </v>
   <v>       0.37500000       0.02777778       0.00000000 </v>
   <v>       0.41666667       0.02777778       0.00000000 </v>
   <v>       0.45833333       0.02777778       0.00000000 </v>
   <v>       0.50000000       0.02777778       0.00000000 </v>
   <v>       0.00000000       0.05555556       0.00000000 </v>
   <v>       0.04166667       0.05555556       0.00000000 </v>
   <v>       0.08333333       0.05555556       0.00000000 </v>
   <v>       0.12500000       0.05555556       0.00000000 </v>
   <v>       0.16666667       0.05555556       0.00000000 </v>
   <v>       0.20833333       0.05555556       0.00000000 </v>
   <v>       0.25000000       0.05555556       0.00000000 </v>
   <v>       0.29166667       0.05555556       0.00000000 </v>
   <v>       0.33333333       0.05555556       0.00000000 </v>
   <v>       0.37500000       0.05555556       0.00000000 </v>
   <v>       0.41666667       0.05555556       0.00000000 </v>
   <v>       0.45833333       0.05555556       0.00000000 </v>
   <v>       0.50000000       0.05555556       0.00000000 </v>
   <v>       0.00000000       0.08333333       0.00000000 </v>
   <v>       0.04166667       0.08333333       0.00000000 </v>
   <v>       0.08333333       0.08333333       0.00000000 </v>
   <v>       0.12500000       0.08333333       0.00000000 </v>
   <v>       0.16666667       0.08333333       0.00000000 </v>
   <v>       0.20833333       0.08333333       0.00000000 </v>
   <v>       0.25000000       0.08333333       0.00000000 </v>
   <v>       0.29166667       0.08333333       0.00000000 </v>
   <v>       0.33333333       0.08333333       0.00000000 </v>
   <v>       0.37500000       0.08333333       0.00000000 </v>
   <v>       0.41666667       0.08333333       0.00000000 </v>
   <v>       0.45833333       0.08333333       0.00000000 </v>
   <v>       0.50000000       0.08333333       0.00000000 </v>
   <v>       0.00000000       0.11111111       0.00000000 </v>
   <v>       0.04166667       0.11111111       0.00000000 </v>
   <v>       0.08333333       0.11111111       0.00000000 </v>
   <v>       0.12500000       0.11111111       0.00000000 </v>
   <v>       0.16666667       0.11111111       0.00000000 </v>
   <v>       0.20833333       0.11111111       0.00000000 </v>
   <v>       0.25000000       0.11111111       0.00000000 </v>
   <v>       0.29166667       0.11111111       0.00000000 </v>
   <v>       0.33333333       0.11111111       0.00000000 </v>
   <v>       0.37500000       0.11111111       0.00000000 </v>
   <v>       0.41666667       0.11111111       0.00000000 </v>
   <v>       0.45833333       0.11111111       0.00000000 </v>
   <v>       0.50000000       0.11111111       0.00000000 </v>
   <v>       0.00000000       0.13888889       0.00000000 </v>
   <v>       0.04166667       0.13888889       0.00000000 </v>
   <v>       0.08333333       0.13888889       0.00000000 </v>
   <v>       0.12500000       0.13888889       0.00000000 </v>
   <v>       0.16666667       0.13888889       0.00000000 </v>
   <v>       0.20833333       0.13888889       0.00000000 </v>
   <v>       0.25000000       0.13888889       0.00000000 </v>
   <v>       0.29166667       0.13888889       0.00000000 </v>
   <v>       0.33333333       0.13888889       0.00000000 </v>
   <v>       0.37500000       0.13888889       0.00000000 </v>
   <v>       0.41666667       0.13888889       0.00000000 </v>
   <v>       0.45833333       0.13888889       0.00000000 </v>
   <v>       0.50000000       0.13888889       0.00000000 </v>
   <v>       0.00000000       0.16666667       0.00000000 </v>
   <v>       0.04166667       0.16666667       0.00000000 </v>
   <v>       0.08333333       0.16666667       0.00000000 </v>
   <v>       0.12500000       0.16666667       0.00000000 </v>
   <v>       0.16666667       0.16666667       0.00000000 </v>
   <v>       0.20833333       0.16666667       0.00000000 </v>
   <v>       0.25000000       0.16666667       0.00000000 </v>
   <v>       0.29166667       0.16666667       0.00000000 </v>
   <v>       0.33333333       0.16666667       0.00000000 </v>
   <v>       0.37500000       0.16666667       0.00000000 </v>
   <v>       0.41666667       0.16666667       0.00000000 </v>
   <v>       0.45833333       0.16666667       0.00000000 </v>
   <v>       0.50000000       0.16666667       0.00000000 </v>
   <v>       0.00000000       0.19444444       0.00000000 </v>
   <v>       0.04166667       0.19444444       0.00000000 </v>
   <v>       0.08333333       0.19444444       0.00000000 </v>
   <v>       0.12500000       0.19444444       0.00000000 </v>
   <v>       0.16666667       0.19444444       0.00000000 </v>
   <v>       0.20833333       0.19444444       0.00000000 </v>
   <v>       0.25000000       0.19444444       0.00000000 </v>
   <v>       0.29166667       0.19444444       0.00000000 </v>
   <v>       0.33333333       0.19444444       0.00000000 </v>
   <v>       0.37500000       0.19444444       0.00000000 </v>
   <v>       0.41666667       0.19444444       0.00000000 </v>
   <v>       0.45833333       0.19444444       0.00000000 </v>
   <v>       0.50000000       0.19444444       0.00000000 </v>
   <v>       0.00000000       0.22222222       0.00000000 </v>
   <v>       0.04166667       0.22222222       0.00000000 </v>
   <v>       0.08333333       0.22222222       0.00000000 </v>
   <v>       0.12500000       0.22222222       0.00000000 </v>
   <v>       0.16666667       0.22222222       0.00000000 </v>
   <v>       0.20833333       0.22222222       0.00000000 </v>
   <v>       0.25000000       0.22222222       0.00000000 </v>
   <v>       0.29166667       0.22222222       0.00000000 </v>
   <v>       0.33333333       0.22222222       0.00000000 </v>
   <v>       0.37500000       0.22222222       0.00000000 </v>
   <v>       0.41666667       0.22222222       0.00000000 </v>
   <v>       0.45833333       0.22222222       0.00000000 </v>
   <v>       0.50000000       0.22222222       0.00000000 </v>
   <v>       0.00000000       0.25000000       0.00000000 </v>
   <v>       0.04166667       0.25000000       0.00000000 </v>
   <v>       0.08333333       0.25000000       0.00000000 </v>
   <v>       0.12500000       0.25000000       0.00000000 </v>
   <v>       0.16666667       0.25000000       0.00000000 </v>
   <v>       0.20833333       0.25000000       0.00000000 </v>
   <v>       0.25000000       0.25000000       0.00000000 </v>
   <v>       0.29166667       0.25000000       0.00000000 </v>
   <v>       0.33333333       0.25000000       0.00000000 </v>
   <v>       0.37500000       0.25000000       0.00000000 </v>
   <v>       0.41666667       0.25000000       0.00000000 </v>
   <v>       0.45833333       0.25000000       0.00000000 </v>
   <v>       0.50000000       0.25000000       0.00000000 </v>
   <v>       0.00000000       0.27777778       0.00000000 </v>
   <v>       0.04166667       0.27777778       0.00000000 </v>
   <v>       0.08333333       0.27777778       0.00000000 </v>
   <v>       0.12500000       0.27777778       0.00000000 </v>
   <v>       0.16666667       0.27777778       0.00000000 </v>
   <v>       0.20833333       0.27777778       0.00000000 </v>
   <v>       0.25000000       0.27777778       0.00000000 </v>
   <v>       0.29166667       0.27777778       0.00000000 </v>
   <v>       0.33333333       0.27777778       0.00000000 </v>
   <v>       0.37500000       0.27777778       0.00000000 </v>
   <v>       0.41666667       0.27777778       0.00000000 </v>
   <v>       0.45833333       0.27777778       0.00000000 </v>
   <v>       0.50000000       0.27777778       0.00000000 </v>
   <v>       0.00000000       0.30555556       0.00000000 </v>
   <v>       0.04166667       0.30555556       0.00000000 </v>
   <v>       0.08333333       0.30555556       0.00000000 </v>
   <v>       0.12500000       0.30555556       0.00000000 </v>
   <v>       0.16666667       0.30555556       0.00000000 </v>
   <v>       0.20833333       0.30555556       0.00000000 </v>
   <v>       0.25000000       0.30555556       0.00000000 </v>
   <v>       0.29166667       0.30555556       0.00000000 </v>
   <v>       0.33333333       0.30555556       0.00000000 </v>
   <v>       0.37500000       0.30555556       0.00000000 </v>
   <v>       0.41666667       0.30555556       0.00000000 </v>
   <v>       0.45833333       0.30555556       0.00000000 </v>
   <v>       0.50000000       0.30555556       0.00000000 </v>
   <v>       0.00000000       0.33333333       0.00000000 </v>
   <v>       0.04166667       0.33333333       0.00000000 </v>
   <v>       0.08333333       0.33333333       0.00000000 </v>
   <v>       0.12500000       0.33333333       0.00000000 </v>
   <v>       0.16666667       0.33333333       0.00000000 </v>
   <v>       0.20833333       0.33333333       0.00000000 </v>
   <v>       0.25000000       0.33333333       0.00000000 </v>
   <v>       0.29166667       0.33333333       0.00000000 </v>
   <v>       0.33333333       0.33333333       0.00000000 </v>
   <v>       0.37500000       0.33333333       0.00000000 </v>
   <v>       0.41666667       0.33333333       0.00000000 </v>
   <v>       0.45833333       0.33333333       0.00000000 </v>
   <v>       0.50000000       0.33333333       0.00000000 </v>
   <v>       0.00000000       0.36111111       0.00000000 </v>
   <v>       0.04166667       0.36111111       0.00000000 </v>
   <v>       0.08333333       0.36111111       0.00000000 </v>
   <v>       0.12500000       0.36111111       0.00000000 </v>
   <v>       0.16666667       0.36111111       0.00000000 </v>
   <v>       0.20833333       0.36111111       0.00000000 </v>
   <v>       0.25000000       0.36111111       0.00000000 </v>
   <v>       0.29166667       0.36111111       0.00000000 </v>
   <v>       0.33333333       0.36111111       0.00000000 </v>
   <v>       0.37500000       0.36111111       0.00000000 </v>
   <v>       0.41666667       0.36111111       0.00000000 </v>
   <v>       0.45833333       0.36111111       0.00000000 </v>
   <v>       0.50000000       0.36111111       0.00000000 </v>
   <v>       0.00000000       0.38888889       0.00000000 </v>
   <v>       0.04166667       0.38888889       0.00000000 </v>
   <v>       0.08333333       0.38888889       0.00000000 </v>
   <v>       0.12500000       0.38888889       0.00000000 </v>
   <v>       0.16666667       0.38888889       0.00000000 </v>
   <v>       0.20833333       0.38888889       0.00000000 </v>
   <v>       0.25000000       0.38888889       0.00000000 </v>
   <v>       0.29166667       0.38888889       0.00000000 </v>
   <v>       0.33333333       0.38888889       0.00000000 </v>
   <v>       0.37500000       0.38888889       0.00000000 </v>
   <v>       0.41666667       0.38888889       0.00000000 </v>
   <v>       0.45833333       0.38888889       0.00000000 </v>
   <v>       0.50000000       0.38888889       0.00000000 </v>
   <v>       0.00000000       0.41666667       0.00000000 </v>
   <v>       0.04166667       0.41666667       0.00000000 </v>
   <v>       0.08333333       0.41666667       0.00000000 </v>
   <v>       0.12500000       0.41666667       0.00000000 </v>
   <v>       0.16666667       0.41666667       0.00000000 </v>
   <v>       0.20833333       0.41666667       0.00000000 </v>
   <v>       0.25000000       0.41666667       0.00000000 </v>
   <v>       0.29166667       0.41666667       0.00000000 </v>
   <v>       0.33333333       0.41666667       0.00000000 </v>
   <v>       0.37500000       0.41666667       0.00000000 </v>
   <v>       0.41666667       0.41666667       0.00000000 </v>
   <v>       0.45833333       0.41666667       0.00000000 </v>
   <v>       0.50000000       0.41666667       0.00000000 </v>
   <v>       0.00000000       0.44444444       0.00000000 </v>
   <v>       0.04166667       0.44444444       0.00000000 </v>
   <v>       0.08333333       0.44444444       0.00000000 </v>
   <v>       0.12500000       0.44444444       0.00000000 </v>
   <v>       0.16666667       0.44444444       0.00000000 </v>
   <v>       0.20833333       0.44444444       0.00000000 </v>
   <v>       0.25000000       0.44444444       0.00000000 </v>
   <v>       0.29166667       0.44444444       0.00000000 </v>
   <v>       0.33333333       0.44444444       0.00000000 </v>
   <v>       0.37500000       0.44444444       0.00000000 </v>
   <v>       0.41666667       0.44444444       0.00000000 </v>
   <v>       0.45833333       0.44444444       0.00000000 </v>
   <v>       0.50000000       0.44444444       0.00000000 </v>
   <v>       0.00000000       0.47222222       0.00000000 </v>
   <v>       0.04166667       0.47222222       0.00000000 </v>
   <v>       0.08333333       0.47222222       0.00000000 </v>
   <v>       0.12500000       0.47222222       0.00000000 </v>
   <v>       0.16666667       0.47222222       0.00000000 </v>
   <v>       0.20833333       0.47222222       0.00000000 </v>
   <v>       0.25000000       0.47222222       0.00000000 </v>
   <v>       0.29166667       0.47222222       0.00000000 </v>
   <v>       0.33333333       0.47222222       0.00000000 </v>
   <v>       0.37500000       0.47222222       0.00000000 </v>
   <v>       0.41666667       0.47222222       0.00000000 </v>
   <v>       0.45833333       0.47222222       0.00000000 </v>
   <v>       0.50000000       0.47222222       0.00000000 </v>
   <v>       0.00000000       0.50000000       0.00000000 </v>
   <v>       0.04166667       0.50000000       0.00000000 </v>
   <v>       0.08333333       0.50000000       0.00000000 </v>
   <v>       0.12500000       0.50000000       0.00000000 </v>
   <v>       0.16666667       0.50000000       0.00000000 </v>
   <v>       0.20833333       0.50000000       0.00000000 </v>
   <v>       0.25000000       0.50000000       0.00000000 </v>
   <v>       0.29166667       0.50000000       0.00000000 </v>
   <v>       0.33333333       0.50000000       0.00000000 </v>
   <v>       0.37500000       0.50000000       0.00000000 </v>
   <v>       0.41666667       0.50000000       0.00000000 </v>
   <v>       0.45833333       0.50000000       0.00000000 </v>
   <v>       0.50000000       0.50000000       0.00000000 </v>
  </varray>
  <varray name="weights" >
   <v>       0.00115741 </v>
   <v>       0.00231481 </v>
   <v>       0.00231481 </v>
   <v>       0.00231481 </v>
   <v>       0.00231481 </v>
   <v>       0.00231481 </v>
   <v>       0.00231481 </v>
   <v>       0.00231481 </v>
   <v>       0.00231481 </v>
   <v>       0.00231481 </v>
   <v>       0.00231481 </v>
   <v>       0.00231481 </v>
   <v>       0.00115741 </v>
   <v>       0.00231481 </v>
   <v>       0.00462963 </v>
   <v>       0.00462963 </v>
   <v>       0.00462963 </v>
   <v>       0.00462963 </v>
   <v>       0.00462963 </v>
   <v>       0.00462963 </v>
   <v>       0.00462963 </v>
   <v>       0.00462963 </v>
   <v>       0.00462963 </v>
   <v>       0.00462963 </v>
   <v>       0.00462963 </v>
   <v>       0.00231481 </v>
   <v>       0.00231481 </v>
   <v>       0.00462963 </v>
   <v>       0.00462963 </v>
   <v>       0.00462963 </v>
   <v>       0.00462963 </v>
   <v>       0.00462963 </v>
   <v>       0.00462963 </v>
   <v>       0.00462963 </v>
   <v>       0.00462963 </v>
   <v>       0.00462963 </v>
   <v>       0.00462963 </v>
   <v>       0.00462963 </v>
   <v>       0.00231481 </v>
   <v>       0.00231481 </v>
   <v>       0.00462963 </v>
   <v>       0.00462963 </v>
   <v>       0.00462963 </v>
   <v>       0.00462963 </v>
   <v>       0.00462963 </v>
   <v>       0.00462963 </v>
   <v>       0.00462963 </v>
   <v>       0.00462963 </v>
   <v>       0.00462963 </v>
   <v>       0.00462963 </v>
   <v>       0.00462963 </v>
   <v>       0.00231481 </v>
   <v>       0.00231481 </v>
   <v>       0.00462963 </v>
   <v>       0.00462963 </v>
   <v>       0.00462963 </v>
   <v>       0.00462963 </v>
   <v>       0.00462963 </v>
   <v>       0.00462963 </v>
   <v>       0.00462963 </v>
   <v>       0.00462963 </v>
   <v>       0.00462963 </v>
   <v>       0.00462963 </v>
   <v>       0.00462963 </v>
   <v>       0.00231481 </v>
   <v>       0.00231481 </v>
   <v>       0.00462963 </v>
   <v>       0.00462963 </v>
   <v>       0.00462963 </v>
   <v>       0.00462963 </v>
   <v>       0.00462963 </v>
   <v>       0.00462963 </v>
   <v>       0.00462963 </v>
   <v>       0.00462963 </v>
   <v>       0.00462963 </v>
   <v>       0.00462963 </v>
   <v>       0.00462963 </v>
   <v>       0.00231481 </v>
   <v>       0.00231481 </v>
   <v>       0.00462963 </v>
   <v>       0.00462963 </v>
   <v>       0.00462963 </v>
   <v>       0.00462963 </v>
   <v>       0.00462963 </v>
   <v>       0.00462963 </v>
   <v>       0.00462963 </v>
   <v>       0.00462963 </v>
   <v>       0.00462963 </v>
   <v>       0.00462963 </v>
   <v>       0.00462963 </v>
   <v>       0.00231481 </v>
   <v>       0.00231481 </v>
   <v>       0.00462963 </v>
   <v>       0.00462963 </v>
   <v>       0.00462963 </v>
   <v>       0.00462963 </v>
   <v>       0.00462963 </v>
   <v>       0.00462963 </v>
   <v>       0.00462963 </v>
   <v>       0.00462963 </v>
   <v>       0.00462963 </v>
   <v>       0.00462963 </v>
   <v>       0.00462963 </v>
   <v>       0.00231481 </v>
   <v>       0.00231481 </v>
   <v>       0.00462963 </v>
   <v>       0.00462963 </v>
   <v>       0.00462963 </v>
   <v>       0.00462963 </v>
   <v>       0.00462963 </v>
   <v>       0.00462963 </v>
   <v>       0.00462963 </v>
   <v>       0.00462963 </v>
   <v>       0.00462963 </v>
   <v>       0.00462963 </v>
   <v>       0.00462963 </v>
   <v>       0.00231481 </v>
   <v>       0.00231481 </v>
   <v>       0.00462963 </v>
   <v>       0.00462963 </v>
   <v>       0.00462963 </v>
   <v>       0.00462963 </v>
   <v>       0.00462963 </v>
   <v>       0.00462963 </v>
   <v>       0.00462963 </v>
   <v>       0.00462963 </v>
   <v>       0.00462963 </v>
   <v>       0.00462963 </v>
   <v>       0.00462963 </v>
   <v>       0.00231481 </v>
   <v>       0.00231481 </v>
   <v>       0.00462963 </v>
   <v>       0.00462963 </v>
   <v>       0.00462963 </v>
   <v>       0.00462963 </v>
   <v>       0.00462963 </v>
   <v>       0.00462963 </v>
   <v>       0.00462963 </v>
   <v>       0.00462963 </v>
   <v>       0.00462963 </v>
   <v>       0.00462963 </v>
   <v>       0.00462963 </v>
   <v>       0.00231481 </v>
   <v>       0.00231481 </v>
   <v>       0.00462963 </v>
   <v>       0.00462963 </v>
   <v>       0.00462963 </v>
   <v>       0.00462963 </v>
   <v>       0.00462963 </v>
   <v>       0.00462963 </v>
   <v>       0.00462963 </v>
   <v>       0.00462963 </v>
   <v>       0.00462963 </v>
   <v>       0.00462963 </v>
   <v>       0.00462963 </v>
   <v>       0.00231481 </v>
   <v>       0.00231481 </v>
   <v>       0.00462963 </v>
   <v>       0.00462963 </v>
   <v>       0.00462963 </v>
   <v>       0.00462963 </v>
   <v>       0.00462963 </v>
   <v>       0.00462963 </v>
   <v>       0.00462963 </v>
   <v>       0.00462963 </v>
   <v>       0.00462963 </v>
   <v>       0.00462963 </v>
   <v>       0.00462963 </v>
   <v>       0.00231481 </v>
   <v>       0.00231481 </v>
   <v>       0.00462963 </v>
   <v>       0.00462963 </v>
   <v>       0.00462963 </v>
   <v>       0.00462963 </v>
   <v>       0.00462963 </v>
   <v>       0.00462963 </v>
   <v>       0.00462963 </v>
   <v>       0.00462963 </v>
   <v>       0.00462963 </v>
   <v>       0.00462963 </v>
   <v>       0.00462963 </v>
   <v>       0.00231481 </v>
   <v>       0.00231481 </v>
   <v>       0.00462963 </v>
   <v>       0.00462963 </v>
   <v>       0.00462963 </v>
   <v>       0.00462963 </v>
   <v>       0.00462963 </v>
   <v>       0.00462963 </v>
   <v>       0.00462963 </v>
   <v>       0.00462963 </v>
   <v>       0.00462963 </v>
   <v>       0.00462963 </v>
   <v>       0.00462963 </v>
   <v>       0.00231481 </v>
   <v>       0.00231481 </v>
   <v>       0.00462963 </v>
   <v>       0.00462963 </v>
   <v>       0.00462963 </v>
   <v>       0.00462963 </v>
   <v>       0.00462963 </v>
   <v>       0.00462963 </v>
   <v>       0.00462963 </v>
   <v>       0.00462963 </v>
   <v>       0.00462963 </v>
   <v>       0.00462963 </v>
   <v>       0.00462963 </v>
   <v>       0.00231481 </v>
   <v>       0.00231481 </v>
   <v>       0.00462963 </v>
   <v>       0.00462963 </v>
   <v>       0.00462963 </v>
   <v>       0.00462963 </v>
   <v>       0.00462963 </v>
   <v>       0.00462963 </v>
   <v>       0.00462963 </v>
   <v>       0.00462963 </v>
   <v>       0.00462963 </v>
   <v>       0.00462963 </v>
   <v>       0.00462963 </v>
   <v>       0.00231481 </v>
   <v>       0.00231481 </v>
   <v>       0.00462963 </v>
   <v>       0.00462963 </v>
   <v>       0.00462963 </v>
   <v>       0.00462963 </v>
   <v>       0.00462963 </v>
   <v>       0.00462963 </v>
   <v>       0.00462963 </v>
   <v>       0.00462963 </v>
   <v>       0.00462963 </v>
   <v>       0.00462963 </v>
   <v>       0.00462963 </v>
   <v>       0.00231481 </v>
   <v>       0.00115741 </v>
   <v>       0.00231481 </v>
   <v>       0.00231481 </v>
   <v>       0.00231481 </v>
   <v>       0.00231481 </v>
   <v>       0.00231481 </v>
   <v>       0.00231481 </v>
   <v>       0.00231481 </v>
   <v>       0.00231481 </v>
   <v>       0.00231481 </v>
   <v>       0.00231481 </v>
   <v>       0.00231481 </v>
   <v>       0.00115741 </v>
  </varray>
 </kpoints>
 <parameters>
  <separator name="general" >
   <i type="string" name="SYSTEM">gr</i>
   <i type="logical" name="LCOMPAT"> F  </i>
  </separator>
  <separator name="electronic" >
   <i type="string" name="PREC">accura</i>
   <i name="ENMAX">   2000.00000000</i>
   <i name="ENAUG">    644.87300000</i>
   <i name="EDIFF">      0.00000000</i>
   <i type="int" name="IALGO">    68</i>
   <i type="int" name="IWAVPR">    11</i>
   <i type="int" name="NBANDS">    12</i>
   <i name="NELECT">     16.00000000</i>
   <i type="int" name="TURBO">     0</i>
   <i type="int" name="IRESTART">     0</i>
   <i type="int" name="NREBOOT">     0</i>
   <i type="int" name="NMIN">     0</i>
   <i name="EREF">      0.00000000</i>
   <separator name="electronic smearing" >
    <i type="int" name="ISMEAR">     0</i>
    <i name="SIGMA">      0.05000000</i>
    <i name="KSPACING">      0.50000000</i>
    <i type="logical" name="KGAMMA"> T  </i>
   </separator>
   <separator name="electronic projectors" >
    <i type="logical" name="LREAL"> F  </i>
    <v name="ROPT">      0.00000000</v>
    <i type="int" name="LMAXPAW">  -100</i>
    <i type="int" name="LMAXMIX">     2</i>
    <i type="logical" name="NLSPLINE"> F  </i>
   </separator>
   <separator name="electronic startup" >
    <i type="int" name="ISTART">     0</i>
    <i type="int" name="ICHARG">     2</i>
    <i type="int" name="INIWAV">     1</i>
   </separator>
   <separator name="electronic spin" >
    <i type="int" name="ISPIN">     1</i>
    <i type="logical" name="LNONCOLLINEAR"> F  </i>
    <v name="MAGMOM">      1.00000000      1.00000000      1.00000000      1.00000000</v>
    <i name="NUPDOWN">     -1.00000000</i>
    <i type="logical" name="LSORBIT"> F  </i>
    <v name="SAXIS">      0.00000000      0.00000000      1.00000000</v>
    <i type="logical" name="LSPIRAL"> F  </i>
    <v name="QSPIRAL">      0.00000000      0.00000000      0.00000000</v>
    <i type="logical" name="LZEROZ"> F  </i>
   </separator>
   <separator name="electronic exchange-correlation" >
    <i type="logical" name="LASPH"> F  </i>
    <i type="logical" name="LMETAGGA"> F  </i>
   </separator>
   <separator name="electronic convergence" >
    <i type="int" name="NELM">   100</i>
    <i type="int" name="NELMDL">    -3</i>
    <i type="int" name="NELMIN">     5</i>
    <i name="ENINI">   2000.00000000</i>
    <separator name="electronic convergence detail" >
     <i type="logical" name="LDIAG"> T  </i>
     <i type="logical" name="LSUBROT"> F  </i>
     <i name="WEIMIN">      0.00100000</i>
     <i name="EBREAK">      0.00000000</i>
     <i name="DEPER">      0.30000000</i>
     <i type="int" name="NRMM">     4</i>
     <i name="TIME">      0.40000000</i>
    </separator>
   </separator>
   <separator name="electronic mixer" >
    <i name="AMIX">      0.40000000</i>
    <i name="BMIX">      1.00000000</i>
    <i name="AMIN">      0.10000000</i>
    <i name="AMIX_MAG">      1.60000000</i>
    <i name="BMIX_MAG">      1.00000000</i>
    <separator name="electronic mixer details" >
     <i type="int" name="IMIX">     4</i>
     <i type="int" name="MAXMIX">   -45</i>
     <i name="WC">    100.00000000</i>
     <i type="int" name="INIMIX">     1</i>
     <i type="int" name="MIXPRE">     1</i>
     <i type="int" name="MREMOVE">     5</i>
    </separator>
   </separator>
   <separator name="electronic dipolcorrection" >
    <i type="logical" name="LDIPOL"> F  </i>
    <i type="logical" name="LMONO"> F  </i>
    <i type="int" name="IDIPOL">     0</i>
    <i name="EPSILON">      1.00000000</i>
    <v name="DIPOL">   -100.00000000   -100.00000000   -100.00000000</v>
    <i name="EFIELD">      0.00000000</i>
   </separator>
  </separator>
  <separator name="grids" >
   <i type="int" name="NGX">    64</i>
   <i type="int" name="NGY">    36</i>
   <i type="int" name="NGZ">   288</i>
   <i type="int" name="NGXF">   128</i>
   <i type="int" name="NGYF">    72</i>
   <i type="int" name="NGZF">   576</i>
   <i type="logical" name="ADDGRID"> F  </i>
  </separator>
  <separator name="ionic" >
   <i type="int" name="NSW">   400</i>
   <i type="int" name="IBRION">     1</i>
   <i type="int" name="ISIF">     2</i>
   <i name="PSTRESS">      0.00000000</i>
   <i name="EDIFFG">     -0.00000100</i>
   <i type="int" name="NFREE">     0</i>
   <i name="POTIM">      0.50000000</i>
   <i name="SMASS">     -3.00000000</i>
   <i name="SCALEE">      1.00000000</i>
  </separator>
  <separator name="ionic md" >
   <i name="TEBEG">      0.00010000</i>
   <i name="TEEND">      0.00010000</i>
   <i type="int" name="NBLOCK">     1</i>
   <i type="int" name="KBLOCK">   400</i>
   <i type="int" name="NPACO">   256</i>
   <i name="APACO">     16.00000000</i>
  </separator>
  <separator name="symmetry" >
   <i type="int" name="ISYM">     2</i>
   <i name="SYMPREC">      0.00001000</i>
  </separator>
  <separator name="dos" >
   <i type="logical" name="LORBIT"> F  </i>
   <v name="RWIGS">     -1.00000000</v>
   <i type="int" name="NEDOS">   301</i>
   <i name="EMIN">     10.00000000</i>
   <i name="EMAX">    -10.00000000</i>
   <i name="EFERMI">      0.00000000</i>
  </separator>
  <separator name="writing" >
   <i type="int" name="NWRITE">     2</i>
   <i type="logical" name="LWAVE"> F  </i>
   <i type="logical" name="LCHARG"> F  </i>
   <i type="logical" name="LPARD"> F  </i>
   <i type="logical" name="LVTOT"> F  </i>
   <i type="logical" name="LVHAR"> F  </i>
   <i type="logical" name="LELF"> F  </i>
   <i type="logical" name="LOPTICS"> F  </i>
   <v name="STM">      0.00000000      0.00000000      0.00000000      0.00000000      0.00000000      0.00000000      0.00000000</v>
  </separator>
  <separator name="performance" >
   <i type="int" name="NPAR">     4</i>
   <i type="int" name="NSIM">     4</i>
   <i type="int" name="NBLK">    -1</i>
   <i type="logical" name="LPLANE"> T  </i>
   <i type="logical" name="LSCALAPACK"> F  </i>
   <i type="logical" name="LSCAAWARE"> F  </i>
   <i type="logical" name="LSCALU"> F  </i>
   <i type="logical" name="LASYNC"> F  </i>
   <i type="logical" name="LORBITALREAL"> F  </i>
  </separator>
  <separator name="miscellaneous" >
   <i type="int" name="IDIOT">     3</i>
   <i type="logical" name="LMUSIC"> F  </i>
   <v name="POMASS">     12.01100000</v>
   <v name="DARWINR">      0.00000000</v>
   <v name="DARWINV">      1.00000000</v>
   <i type="logical" name="LCORR"> T  </i>
  </separator>
  <i type="logical" name="GGA_COMPAT"> T  </i>
  <i type="logical" name="LBERRY"> F  </i>
  <i type="int" name="ICORELEVEL">     0</i>
  <i type="logical" name="LDAU"> F  </i>
  <i type="int" name="I_CONSTRAINED_M">     0</i>
  <separator name="electronic exchange-correlation" >
   <i type="string" name="GGA">--</i>
   <i type="int" name="VOSKOWN">     0</i>
   <i type="logical" name="LHFCALC"> F  </i>
   <i type="string" name="PRECFOCK"></i>
   <i type="logical" name="LSYMGRAD"> F  </i>
   <i type="logical" name="LHFONE"> F  </i>
   <i type="logical" name="LRHFCALC"> F  </i>
   <i type="logical" name="LTHOMAS"> F  </i>
   <i type="logical" name="LMODELHF"> F  </i>
   <i name="ENCUT4O">     -1.00000000</i>
   <i type="int" name="EXXOEP">     0</i>
   <i type="int" name="FOURORBIT">     0</i>
   <i name="AEXX">      0.00000000</i>
   <i name="HFALPHA">      0.00000000</i>
   <i name="MCALPHA">      0.00000000</i>
   <i name="ALDAX">      1.00000000</i>
   <i name="AGGAX">      1.00000000</i>
   <i name="ALDAC">      1.00000000</i>
   <i name="AGGAC">      1.00000000</i>
   <i type="int" name="NKREDX">     1</i>
   <i type="int" name="NKREDY">     1</i>
   <i type="int" name="NKREDZ">     1</i>
   <i type="logical" name="SHIFTRED"> F  </i>
   <i type="logical" name="ODDONLY"> F  </i>
   <i type="logical" name="EVENONLY"> F  </i>
   <i type="int" name="LMAXFOCK">     0</i>
   <i type="int" name="NMAXFOCKAE">     0</i>
   <i type="logical" name="LFOCKAEDFT"> F  </i>
   <i name="HFSCREEN">      0.00000000</i>
   <i name="HFSCREENC">      0.00000000</i>
   <i type="int" name="NBANDSGWLOW">     0</i>
  </separator>
  <separator name="vdW DFT" >
   <i type="logical" name="LUSE_VDW"> F  </i>
   <i name="Zab_VDW">     -0.84910000</i>
   <i name="PARAM1">      0.12340000</i>
   <i name="PARAM2">      1.00000000</i>
   <i name="PARAM3">      0.00000000</i>
  </separator>
  <separator name="model GW" >
   <i type="int" name="MODEL_GW">     0</i>
   <i name="MODEL_EPS0">     31.62568521</i>
   <i name="MODEL_ALPHA">      1.00000000</i>
  </separator>
  <separator name="linear response parameters" >
   <i type="logical" name="LEPSILON"> F  </i>
   <i type="logical" name="LRPA"> F  </i>
   <i type="logical" name="LNABLA"> F  </i>
   <i type="logical" name="LVEL"> F  </i>
   <i type="int" name="KINTER">     0</i>
   <i name="CSHIFT">      0.10000000</i>
   <i name="OMEGAMAX">     -1.00000000</i>
   <i name="DEG_THRESHOLD">      0.00200000</i>
  </separator>
  <separator name="orbital magnetization" >
   <i type="logical" name="NUCIND"> F  </i>
   <v name="MAGPOS">      0.00000000      0.00000000      0.00000000</v>
   <i type="logical" name="LNICSALL"> T  </i>
   <i type="logical" name="ORBITALMAG"> F  </i>
   <i type="logical" name="LMAGBLOCH"> F  </i>
   <i type="logical" name="LCHIMAG"> F  </i>
   <i type="logical" name="LGAUGE"> T  </i>
   <i type="int" name="MAGATOM">     0</i>
   <v name="MAGDIPOL">      0.00000000      0.00000000      0.00000000</v>
   <v name="AVECCONST">      0.00000000      0.00000000      0.00000000</v>
  </separator>
  <separator name="response functions" >
   <i type="logical" name="LADDER"> F  </i>
   <i type="logical" name="LFXC"> F  </i>
   <i type="logical" name="LHARTREE"> T  </i>
   <i type="int" name="IBSE">     0</i>
   <i type="logical" name="LTCTE"> F  </i>
   <i type="logical" name="LTETE"> F  </i>
   <i type="logical" name="LTRIPLET"> F  </i>
   <i type="logical" name="LFXCEPS"> F  </i>
   <i type="logical" name="LFXHEG"> F  </i>
   <i type="logical" name="L2ORDER"> F  </i>
   <i type="logical" name="LUSEW"> F  </i>
   <i name="ENCUTGW">     -2.00000000</i>
   <i name="ENCUTGWSOFT">     -2.00000000</i>
   <i name="ENCUTLF">     -1.00000000</i>
   <i type="int" name="LMAXMP2">    -1</i>
   <i name="SCISSOR">      0.00000000</i>
   <i type="int" name="NOMEGA">     0</i>
   <i type="int" name="NOMEGAR">     0</i>
   <i type="int" name="NBANDSGW">    -1</i>
   <i type="int" name="NBANDSO">    -1</i>
   <i type="int" name="NBANDSV">    -1</i>
   <i type="int" name="NELM">   100</i>
   <i type="int" name="DIM">     3</i>
   <i type="int" name="ANTIRES">     0</i>
   <i name="OMEGAMAX">    -30.00000000</i>
   <i name="OMEGAMIN">    -30.00000000</i>
   <i name="OMEGATL">   -200.00000000</i>
   <i type="int" name="OMEGAGRID">     0</i>
   <i name="CSHIFT">     -0.10000000</i>
   <i type="logical" name="SELFENERGY"> F  </i>
   <i type="logical" name="LSPECTRAL"> F  </i>
   <i type="logical" name="ODDONLYGW"> F  </i>
   <i type="logical" name="EVENONLYGW"> F  </i>
   <i type="int" name="NKREDLFX">     1</i>
   <i type="int" name="NKREDLFY">     1</i>
   <i type="int" name="NKREDLFZ">     1</i>
   <i type="int" name="MAXMEM">  1800</i>
   <i type="int" name="TELESCOPE">     0</i>
   <i type="int" name="TAUPAR">     1</i>
  </separator>
  <separator name="External order field" >
   <i name="OFIELD_KAPPA">      0.00000000</i>
   <v name="OFIELD_K">      0.00000000      0.00000000      0.00000000</v>
   <i name="OFIELD_Q6_NEAR">      0.00000000</i>
   <i name="OFIELD_Q6_FAR">      0.00000000</i>
   <i name="OFIELD_A">      0.00000000</i>
  </separator>
 </parameters>
 <atominfo>
  <atoms>       4 </atoms>
  <types>       1 </types>
  <array name="atoms" >
   <dimension dim="1">ion</dimension>
   <field type="string">element</field>
   <field type="int">atomtype</field>
   <set>
    <rc><c>C </c><c>   1</c></rc>
    <rc><c>C </c><c>   1</c></rc>
    <rc><c>C </c><c>   1</c></rc>
    <rc><c>C </c><c>   1</c></rc>
   </set>
  </array>
  <array name="atomtypes" >
   <dimension dim="1">type</dimension>
   <field type="int">atomspertype</field>
   <field type="string">element</field>
   <field>mass</field>
   <field>valence</field>
   <field type="string">pseudopotential</field>
   <set>
    <rc><c>   4</c><c>C </c><c>     12.01100000</c><c>      4.00000000</c><c> PAW_PBE C 08Apr2002                    </c></rc>
   </set>
  </array>
 </atominfo>
 <structure name="initialpos" >
  <crystal>
   <varray name="basis" >
    <v>       4.38073802       0.00000000       0.00000000 </v>
    <v>       0.00000000       2.45711600       0.00000000 </v>
    <v>       0.00000000       0.00000000      19.58735272 </v>
   </varray>
   <i name="volume">    210.83790140 </i>
   <varray name="rec_basis" >
    <v>       0.22827204       0.00000000       0.00000000 </v>
    <v>       0.00000000       0.40698119       0.00000000 </v>
    <v>       0.00000000       0.00000000       0.05105335 </v>
   </varray>
  </crystal>
  <varray name="positions" >
   <v>       0.99945869       0.00000000       0.00000000 </v>
   <v>       0.16720798       0.50000000       0.00000000 </v>
   <v>       0.49945869       0.50000000       0.00000000 </v>
   <v>       0.66720798       0.00000000       0.00000000 </v>
  </varray>
 </structure>
 <calculation>
  <scstep>
   <time name="dav">  298.60  299.19</time>
   <time name="total">  301.20  302.92</time>
   <energy>
    <i name="alphaZ">      6.18334092 </i>
    <i name="ewald">   2448.46496402 </i>
    <i name="hartreedc">  -2877.98843312 </i>
    <i name="XCdc">     54.81505760 </i>
    <i name="pawpsdc">    151.32577238 </i>
    <i name="pawaedc">   -155.92769107 </i>
    <i name="eentropy">     -0.00093159 </i>
    <i name="bandstr">    -28.45207511 </i>
    <i name="atom">    588.62352690 </i>
    <i name="e_fr_energy">    187.04353094 </i>
    <i name="e_wo_entrp">    187.04446253 </i>
    <i name="e_0_energy">    187.04399673 </i>
   </energy>
  </scstep>
  <scstep>
   <time name="dav">  453.46  453.76</time>
   <time name="total">  453.46  453.77</time>
   <energy>
    <i name="e_fr_energy">     -8.83262595 </i>
    <i name="e_wo_entrp">     -8.83211123 </i>
    <i name="e_0_energy">     -8.83236859 </i>
   </energy>
  </scstep>
  <scstep>
   <time name="dav">  343.78  345.53</time>
   <time name="total">  374.08  376.01</time>
   <energy>
    <i name="e_fr_energy">    -38.02976854 </i>
    <i name="e_wo_entrp">    -38.02976809 </i>
    <i name="e_0_energy">    -38.02976831 </i>
   </energy>
  </scstep>
  <scstep>
   <time name="diag">   81.27   81.46</time>
   <time name="diis">  335.36  335.77</time>
   <time name="orth">    3.08    3.08</time>
   <time name="total">  452.02  452.76</time>
   <energy>
    <i name="e_fr_energy">    -37.57223934 </i>
    <i name="e_wo_entrp">    -37.57223932 </i>
    <i name="e_0_energy">    -37.57223933 </i>
   </energy>
  </scstep>
  <scstep>
   <time name="diag">   81.41   81.45</time>
   <time name="diis">  330.82  331.06</time>
   <time name="orth">    3.09    3.11</time>
   <time name="total">  448.94  449.38</time>
   <energy>
    <i name="e_fr_energy">    -36.86660357 </i>
    <i name="e_wo_entrp">    -36.86660354 </i>
    <i name="e_0_energy">    -36.86660356 </i>
   </energy>
  </scstep>
  <scstep>
   <time name="diag">   80.59   81.45</time>
   <time name="diis">  370.87  373.98</time>
   <time name="orth">    3.09    3.09</time>
   <time name="total">  488.29  492.85</time>
   <energy>
    <i name="e_fr_energy">    -36.86832775 </i>
    <i name="e_wo_entrp">    -36.86832773 </i>
    <i name="e_0_energy">    -36.86832774 </i>
   </energy>
  </scstep>
  <scstep>
   <time name="diag">   81.37   81.45</time>
   <time name="diis">  340.11  340.46</time>
   <time name="orth">    3.08    3.09</time>
   <time name="total">  458.24  458.85</time>
   <energy>
    <i name="e_fr_energy">    -36.85952835 </i>
    <i name="e_wo_entrp">    -36.85952834 </i>
    <i name="e_0_energy">    -36.85952835 </i>
   </energy>
  </scstep>
  <scstep>
   <time name="diag">   80.94   81.49</time>
   <time name="diis">  340.64  341.66</time>
   <time name="orth">    3.08    3.09</time>
   <time name="total">  458.54  460.42</time>
   <energy>
    <i name="e_fr_energy">    -36.85483518 </i>
    <i name="e_wo_entrp">    -36.85483517 </i>
    <i name="e_0_energy">    -36.85483517 </i>
   </energy>
  </scstep>
  <scstep>
   <time name="diag">   81.19   81.46</time>
   <time name="diis">  328.93  329.37</time>
   <time name="orth">    3.07    3.10</time>
   <time name="total">  446.75  447.94</time>
   <energy>
    <i name="e_fr_energy">    -36.85452279 </i>
    <i name="e_wo_entrp">    -36.85452277 </i>
    <i name="e_0_energy">    -36.85452278 </i>
   </energy>
  </scstep>
  <scstep>
   <time name="diag">   80.79   81.43</time>
   <time name="diis">  329.00  330.89</time>
   <time name="orth">    3.10    3.10</time>
   <time name="total">  445.80  448.47</time>
   <energy>
    <i name="e_fr_energy">    -36.85446473 </i>
    <i name="e_wo_entrp">    -36.85446471 </i>
    <i name="e_0_energy">    -36.85446472 </i>
   </energy>
  </scstep>
  <scstep>
   <time name="diag">   81.29   81.40</time>
   <time name="diis">  330.17  331.15</time>
   <time name="orth">    3.07    3.10</time>
   <time name="total">  447.79  449.31</time>
   <energy>
    <i name="e_fr_energy">    -36.85673909 </i>
    <i name="e_wo_entrp">    -36.85673908 </i>
    <i name="e_0_energy">    -36.85673908 </i>
   </energy>
  </scstep>
  <scstep>
   <time name="diag">   81.42   81.44</time>
   <time name="diis">  332.34  332.44</time>
   <time name="orth">    3.10    3.10</time>
   <time name="total">  450.75  450.89</time>
   <energy>
    <i name="e_fr_energy">    -36.85724404 </i>
    <i name="e_wo_entrp">    -36.85724403 </i>
    <i name="e_0_energy">    -36.85724403 </i>
   </energy>
  </scstep>
  <scstep>
   <time name="diag">   81.47   81.48</time>
   <time name="diis">  338.82  339.55</time>
   <time name="orth">    3.08    3.08</time>
   <time name="total">  457.30  458.80</time>
   <energy>
    <i name="e_fr_energy">    -36.85749276 </i>
    <i name="e_wo_entrp">    -36.85749275 </i>
    <i name="e_0_energy">    -36.85749275 </i>
   </energy>
  </scstep>
  <scstep>
   <time name="diag">   81.32   81.45</time>
   <time name="diis">  338.72  339.22</time>
   <time name="orth">    3.11    3.11</time>
   <time name="total">  456.99  457.67</time>
   <energy>
    <i name="e_fr_energy">    -36.85757532 </i>
    <i name="e_wo_entrp">    -36.85757530 </i>
    <i name="e_0_energy">    -36.85757531 </i>
   </energy>
  </scstep>
  <scstep>
   <time name="diag">   81.41   81.43</time>
   <time name="diis">  330.37  330.47</time>
   <time name="orth">    3.11    3.11</time>
   <time name="total">  448.65  448.92</time>
   <energy>
    <i name="e_fr_energy">    -36.85758884 </i>
    <i name="e_wo_entrp">    -36.85758882 </i>
    <i name="e_0_energy">    -36.85758883 </i>
   </energy>
  </scstep>
  <scstep>
   <time name="diag">   81.37   81.44</time>
   <time name="diis">  329.14  329.47</time>
   <time name="orth">    3.08    3.09</time>
   <time name="total">  447.25  448.01</time>
   <energy>
    <i name="e_fr_energy">    -36.85760186 </i>
    <i name="e_wo_entrp">    -36.85760184 </i>
    <i name="e_0_energy">    -36.85760185 </i>
   </energy>
  </scstep>
  <scstep>
   <time name="diag">   81.43   81.46</time>
   <time name="diis">  331.90  332.10</time>
   <time name="orth">    3.11    3.11</time>
   <time name="total">  450.19  451.38</time>
   <energy>
    <i name="e_fr_energy">    -36.85760791 </i>
    <i name="e_wo_entrp">    -36.85760789 </i>
    <i name="e_0_energy">    -36.85760790 </i>
   </energy>
  </scstep>
  <scstep>
   <time name="diag">   81.37   81.40</time>
   <time name="diis">  336.77  337.12</time>
   <time name="orth">    3.10    3.10</time>
   <time name="total">  455.05  455.45</time>
   <energy>
    <i name="e_fr_energy">    -36.85760894 </i>
    <i name="e_wo_entrp">    -36.85760893 </i>
    <i name="e_0_energy">    -36.85760894 </i>
   </energy>
  </scstep>
  <scstep>
   <time name="diag">   81.51   81.53</time>
   <time name="diis">  293.31  293.49</time>
   <time name="orth">    3.10    3.10</time>
   <time name="total">  411.83  412.08</time>
   <energy>
    <i name="e_fr_energy">    -36.85760969 </i>
    <i name="e_wo_entrp">    -36.85760968 </i>
    <i name="e_0_energy">    -36.85760968 </i>
   </energy>
  </scstep>
  <scstep>
   <time name="diag">   81.57   81.59</time>
   <time name="diis">  260.61  260.66</time>
   <time name="orth">    3.10    3.10</time>
   <time name="total">  379.03  379.26</time>
   <energy>
    <i name="e_fr_energy">    -36.85760973 </i>
    <i name="e_wo_entrp">    -36.85760971 </i>
    <i name="e_0_energy">    -36.85760972 </i>
   </energy>
  </scstep>
  <scstep>
   <time name="diag">   81.52   81.59</time>
   <time name="diis">  247.26  247.34</time>
   <time name="orth">    3.08    3.08</time>
   <time name="total">  364.38  364.61</time>
   <energy>
    <i name="e_fr_energy">    -36.85760974 </i>
    <i name="e_wo_entrp">    -36.85760972 </i>
    <i name="e_0_energy">    -36.85760973 </i>
   </energy>
  </scstep>
  <scstep>
   <time name="diag">   81.53   81.55</time>
   <time name="diis">  226.74  226.78</time>
   <time name="orth">    3.11    3.11</time>
   <time name="total">  343.89  343.95</time>
   <energy>
    <i name="e_fr_energy">    -36.85760974 </i>
    <i name="e_wo_entrp">    -36.85760972 </i>
    <i name="e_0_energy">    -36.85760973 </i>
   </energy>
  </scstep>
  <scstep>
   <time name="diag">   81.57   81.60</time>
   <time name="diis">  220.34  220.41</time>
   <time name="orth">    3.08    3.08</time>
   <time name="total">  338.91  339.03</time>
   <energy>
    <i name="e_fr_energy">    -36.85760974 </i>
    <i name="e_wo_entrp">    -36.85760972 </i>
    <i name="e_0_energy">    -36.85760973 </i>
   </energy>
  </scstep>
  <scstep>
   <time name="diag">   81.51   81.52</time>
   <time name="diis">  205.12  205.18</time>
   <time name="orth">    3.08    3.08</time>
   <time name="total">  292.23  292.30</time>
   <energy>
    <i name="alphaZ">      6.18334092 </i>
    <i name="ewald">   2448.46496402 </i>
    <i name="hartreedc">  -2942.75246202 </i>
    <i name="XCdc">     57.13888228 </i>
    <i name="pawpsdc">    268.76128016 </i>
    <i name="pawaedc">   -273.87251084 </i>
    <i name="eentropy">     -0.00000002 </i>
    <i name="bandstr">   -189.40463114 </i>
    <i name="atom">    588.62352690 </i>
    <i name="e_fr_energy">    -36.85760974 </i>
    <i name="e_wo_entrp">    -36.85760972 </i>
    <i name="e_0_energy">    -36.85760973 </i>
   </energy>
  </scstep>
  <structure>
   <crystal>
    <varray name="basis" >
     <v>       4.38073802       0.00000000       0.00000000 </v>
     <v>       0.00000000       2.45711600       0.00000000 </v>
     <v>       0.00000000       0.00000000      19.58735272 </v>
    </varray>
    <i name="volume">    210.83790140 </i>
    <varray name="rec_basis" >
     <v>       0.22827204       0.00000000       0.00000000 </v>
     <v>       0.00000000       0.40698119       0.00000000 </v>
     <v>       0.00000000       0.00000000       0.05105335 </v>
    </varray>
   </crystal>
   <varray name="positions" >
    <v>       0.99945869       0.00000000       0.00000000 </v>
    <v>       0.16720798       0.50000000       0.00000000 </v>
    <v>       0.49945869       0.50000000       0.00000000 </v>
    <v>       0.66720798       0.00000000       0.00000000 </v>
   </varray>
  </structure>
  <varray name="forces" >
   <v>      -0.00032486       0.00000000      -0.00000000 </v>
   <v>       0.00032486      -0.00000000       0.00000000 </v>
   <v>      -0.00032486       0.00000000      -0.00000000 </v>
   <v>       0.00032486      -0.00000000       0.00000000 </v>
  </varray>
  <varray name="stress" >
   <v>     -41.37986217       0.00000000       0.00000000 </v>
   <v>       0.00000000       0.00182516       0.00000000 </v>
   <v>       0.00000000       0.00000000      -0.01018193 </v>
  </varray>
  <energy>
   <i name="e_fr_energy">    -36.85760974 </i>
   <i name="e_wo_entrp">    -36.85760973 </i>
   <i name="e_0_energy">     -0.00000002 </i>
  </energy>
  <time name="totalsc">10174.6410198.65</time>
 </calculation>
 <calculation>
  <scstep>
   <time name="dav">  309.19  310.77</time>
   <time name="total">  342.68  344.69</time>
   <energy>
    <i name="alphaZ">      6.18334092 </i>
    <i name="ewald">   2448.46462701 </i>
    <i name="hartreedc">  -2942.75232569 </i>
    <i name="XCdc">     57.13887311 </i>
    <i name="pawpsdc">    268.76128939 </i>
    <i name="pawaedc">   -273.87252021 </i>
    <i name="eentropy">     -0.00000002 </i>
    <i name="bandstr">   -189.40442113 </i>
    <i name="atom">    588.62352690 </i>
    <i name="e_fr_energy">    -36.85760971 </i>
    <i name="e_wo_entrp">    -36.85760969 </i>
    <i name="e_0_energy">    -36.85760970 </i>
   </energy>
  </scstep>
  <scstep>
   <time name="diag">   80.74   81.49</time>
   <time name="diis">  329.56  330.84</time>
   <time name="orth">    3.08    3.08</time>
   <time name="total">  447.22  449.27</time>
   <energy>
    <i name="e_fr_energy">    -36.85760971 </i>
    <i name="e_wo_entrp">    -36.85760969 </i>
    <i name="e_0_energy">    -36.85760970 </i>
   </energy>
  </scstep>
  <scstep>
   <time name="diag">   81.20   81.36</time>
   <time name="diis">  328.79  332.03</time>
   <time name="orth">    3.09    3.10</time>
   <time name="total">  446.58  450.37</time>
   <energy>
    <i name="e_fr_energy">    -36.85760971 </i>
    <i name="e_wo_entrp">    -36.85760969 </i>
    <i name="e_0_energy">    -36.85760970 </i>
   </energy>
  </scstep>
  <scstep>
   <time name="diag">   80.75   81.51</time>
   <time name="diis">  286.72  289.05</time>
   <time name="orth">    3.09    3.10</time>
   <time name="total">  403.90  407.60</time>
   <energy>
    <i name="e_fr_energy">    -36.85760971 </i>
    <i name="e_wo_entrp">    -36.85760969 </i>
    <i name="e_0_energy">    -36.85760970 </i>
   </energy>
  </scstep>
  <scstep>
   <time name="diag">   81.53   81.54</time>
   <time name="diis">  221.12  221.18</time>
   <time name="orth">    3.07    3.08</time>
   <time name="total">  338.56  339.84</time>
   <energy>
    <i name="e_fr_energy">    -36.85760971 </i>
    <i name="e_wo_entrp">    -36.85760969 </i>
    <i name="e_0_energy">    -36.85760970 </i>
   </energy>
  </scstep>
  <scstep>
   <time name="diag">   81.30   81.32</time>
   <time name="diis">  208.08  208.16</time>
   <time name="orth">    3.08    3.08</time>
   <time name="total">  325.15  325.29</time>
   <energy>
    <i name="e_fr_energy">    -36.85760971 </i>
    <i name="e_wo_entrp">    -36.85760969 </i>
    <i name="e_0_energy">    -36.85760970 </i>
   </energy>
  </scstep>
  <scstep>
   <time name="diag">   81.29   81.34</time>
   <time name="diis">  200.20  200.24</time>
   <time name="orth">    3.10    3.10</time>
   <time name="total">  317.13  317.24</time>
   <energy>
    <i name="e_fr_energy">    -36.85760971 </i>
    <i name="e_wo_entrp">    -36.85760969 </i>
    <i name="e_0_energy">    -36.85760970 </i>
   </energy>
  </scstep>
  <scstep>
   <time name="diag">   81.25   81.27</time>
   <time name="diis">  194.98  195.04</time>
   <time name="orth">    3.08    3.08</time>
   <time name="total">  312.02  312.11</time>
   <energy>
    <i name="e_fr_energy">    -36.85760971 </i>
    <i name="e_wo_entrp">    -36.85760969 </i>
    <i name="e_0_energy">    -36.85760970 </i>
   </energy>
  </scstep>
  <scstep>
   <time name="diag">   81.47   81.51</time>
   <time name="diis">  185.85  185.89</time>
   <time name="orth">    3.10    3.10</time>
   <time name="total">  304.01  304.13</time>
   <energy>
    <i name="e_fr_energy">    -36.85760971 </i>
    <i name="e_wo_entrp">    -36.85760969 </i>
    <i name="e_0_energy">    -36.85760970 </i>
   </energy>
  </scstep>
  <scstep>
   <time name="diag">   81.52   81.54</time>
   <time name="diis">  183.04  183.10</time>
   <time name="orth">    3.10    3.10</time>
   <time name="total">  301.93  302.03</time>
   <energy>
    <i name="e_fr_energy">    -36.85760971 </i>
    <i name="e_wo_entrp">    -36.85760969 </i>
    <i name="e_0_energy">    -36.85760970 </i>
   </energy>
  </scstep>
  <scstep>
   <time name="diag">   81.58   81.64</time>
   <time name="diis">  179.48  179.63</time>
   <time name="orth">    3.10    3.11</time>
   <time name="total">  297.38  297.84</time>
   <energy>
    <i name="e_fr_energy">    -36.85760971 </i>
    <i name="e_wo_entrp">    -36.85760969 </i>
    <i name="e_0_energy">    -36.85760970 </i>
   </energy>
  </scstep>
  <scstep>
   <time name="diag">   81.43   81.56</time>
   <time name="diis">  175.56  175.61</time>
   <time name="orth">    3.11    3.11</time>
   <time name="total">  262.62  262.84</time>
   <energy>
    <i name="alphaZ">      6.18334092 </i>
    <i name="ewald">   2448.46462701 </i>
    <i name="hartreedc">  -2942.75218400 </i>
    <i name="XCdc">     57.13886740 </i>
    <i name="pawpsdc">    268.76071575 </i>
    <i name="pawaedc">   -273.87194411 </i>
    <i name="eentropy">     -0.00000002 </i>
    <i name="bandstr">   -189.40455958 </i>
    <i name="atom">    588.62352690 </i>
    <i name="e_fr_energy">    -36.85760971 </i>
    <i name="e_wo_entrp">    -36.85760969 </i>
    <i name="e_0_energy">    -36.85760970 </i>
   </energy>
  </scstep>
  <structure>
   <crystal>
    <varray name="basis" >
     <v>       4.38073802       0.00000000       0.00000000 </v>
     <v>       0.00000000       2.45711600       0.00000000 </v>
     <v>       0.00000000       0.00000000      19.58735272 </v>
    </varray>
    <i name="volume">    210.83790140 </i>
    <varray name="rec_basis" >
     <v>       0.22827204       0.00000000       0.00000000 </v>
     <v>       0.00000000       0.40698119       0.00000000 </v>
     <v>       0.00000000       0.00000000       0.05105335 </v>
    </varray>
   </crystal>
   <varray name="positions" >
    <v>       0.99945511       0.00000000      -0.00000000 </v>
    <v>       0.16721155       0.50000000       0.00000000 </v>
    <v>       0.49945511       0.50000000      -0.00000000 </v>
    <v>       0.66721155      -0.00000000       0.00000000 </v>
   </varray>
  </structure>
  <varray name="forces" >
   <v>       0.00119909      -0.00000000       0.00000000 </v>
   <v>      -0.00119909       0.00000000       0.00000000 </v>
   <v>       0.00119909      -0.00000000       0.00000000 </v>
   <v>      -0.00119909       0.00000000       0.00000000 </v>
  </varray>
  <varray name="stress" >
   <v>     -41.37741733       0.00000000       0.00000000 </v>
   <v>       0.00000000      -0.00317725       0.00000000 </v>
   <v>       0.00000000       0.00000000      -0.01015946 </v>
  </varray>
  <energy>
   <i name="e_fr_energy">    -36.85760971 </i>
   <i name="e_wo_entrp">    -36.85760970 </i>
   <i name="e_0_energy">     -0.00000002 </i>
  </energy>
  <time name="totalsc"> 4203.64 4221.49</time>
 </calculation>
 <calculation>
  <scstep>
   <time name="dav">  326.63  326.82</time>
   <time name="total">  360.56  360.77</time>
   <energy>
    <i name="alphaZ">      6.18334092 </i>
    <i name="ewald">   2448.46489215 </i>
    <i name="hartreedc">  -2942.75230017 </i>
    <i name="XCdc">     57.13887497 </i>
    <i name="pawpsdc">    268.76071562 </i>
    <i name="pawaedc">   -273.87194398 </i>
    <i name="eentropy">     -0.00000002 </i>
    <i name="bandstr">   -189.40471614 </i>
    <i name="atom">    588.62352690 </i>
    <i name="e_fr_energy">    -36.85760974 </i>
    <i name="e_wo_entrp">    -36.85760972 </i>
    <i name="e_0_energy">    -36.85760973 </i>
   </energy>
  </scstep>
  <scstep>
   <time name="diag">   81.56   81.59</time>
   <time name="diis">  332.51  333.03</time>
   <time name="orth">    3.11    3.11</time>
   <time name="total">  451.09  451.64</time>
   <energy>
    <i name="e_fr_energy">    -36.85760974 </i>
    <i name="e_wo_entrp">    -36.85760972 </i>
    <i name="e_0_energy">    -36.85760973 </i>
   </energy>
  </scstep>
  <scstep>
   <time name="diag">   81.46   81.47</time>
   <time name="diis">  334.55  334.84</time>
   <time name="orth">    3.08    3.08</time>
   <time name="total">  452.99  453.36</time>
   <energy>
    <i name="e_fr_energy">    -36.85760974 </i>
    <i name="e_wo_entrp">    -36.85760972 </i>
    <i name="e_0_energy">    -36.85760973 </i>
   </energy>
  </scstep>
  <scstep>
   <time name="diag">   81.10   81.48</time>
   <time name="diis">  244.14  244.73</time>
   <time name="orth">    3.09    3.10</time>
   <time name="total">  362.02  367.43</time>
   <energy>
    <i name="e_fr_energy">    -36.85760974 </i>
    <i name="e_wo_entrp">    -36.85760972 </i>
    <i name="e_0_energy">    -36.85760973 </i>
   </energy>
  </scstep>
  <scstep>
   <time name="diag">   81.61   81.63</time>
   <time name="diis">  218.05  218.11</time>
   <time name="orth">    3.10    3.10</time>
   <time name="total">  305.21  314.40</time>
   <energy>
    <i name="alphaZ">      6.18334092 </i>
    <i name="ewald">   2448.46489215 </i>
    <i name="hartreedc">  -2942.75239623 </i>
    <i name="XCdc">     57.13887907 </i>
    <i name="pawpsdc">    268.76116696 </i>
    <i name="pawaedc">   -273.87239714 </i>
    <i name="eentropy">     -0.00000002 </i>
    <i name="bandstr">   -189.40462237 </i>
    <i name="atom">    588.62352690 </i>
    <i name="e_fr_energy">    -36.85760974 </i>
    <i name="e_wo_entrp">    -36.85760972 </i>
    <i name="e_0_energy">    -36.85760973 </i>
   </energy>
  </scstep>
  <structure>
   <crystal>
    <varray name="basis" >
     <v>       4.38073802       0.00000000       0.00000000 </v>
     <v>       0.00000000       2.45711600       0.00000000 </v>
     <v>       0.00000000       0.00000000      19.58735272 </v>
    </varray>
    <i name="volume">    210.83790140 </i>
    <varray name="rec_basis" >
     <v>       0.22827204       0.00000000       0.00000000 </v>
     <v>       0.00000000       0.40698119       0.00000000 </v>
     <v>       0.00000000       0.00000000       0.05105335 </v>
    </varray>
   </crystal>
   <varray name="positions" >
    <v>       0.99945793       0.00000000      -0.00000000 </v>
    <v>       0.16720874       0.50000000       0.00000000 </v>
    <v>       0.49945793       0.50000000      -0.00000000 </v>
    <v>       0.66720874      -0.00000000       0.00000000 </v>
   </varray>
  </structure>
  <varray name="forces" >
   <v>      -0.00000879      -0.00000000      -0.00000000 </v>
   <v>       0.00000879       0.00000000       0.00000000 </v>
   <v>      -0.00000879       0.00000000      -0.00000000 </v>
   <v>       0.00000879      -0.00000000       0.00000000 </v>
  </varray>
  <varray name="stress" >
   <v>     -41.37931642       0.00000000       0.00000000 </v>
   <v>       0.00000000       0.00075892       0.00000000 </v>
   <v>       0.00000000       0.00000000      -0.01013317 </v>
  </varray>
  <energy>
   <i name="e_fr_energy">    -36.85760974 </i>
   <i name="e_wo_entrp">    -36.85760973 </i>
   <i name="e_0_energy">     -0.00000002 </i>
  </energy>
  <time name="totalsc"> 2037.18 2053.58</time>
 </calculation>
 <calculation>
  <scstep>
   <time name="dav">  260.47  260.59</time>
   <time name="total">  294.54  294.68</time>
   <energy>
    <i name="alphaZ">      6.18334092 </i>
    <i name="ewald">   2448.46489022 </i>
    <i name="hartreedc">  -2942.75239770 </i>
    <i name="XCdc">     57.13887920 </i>
    <i name="pawpsdc">    268.76116185 </i>
    <i name="pawaedc">   -273.87239214 </i>
    <i name="eentropy">     -0.00000002 </i>
    <i name="bandstr">   -189.40461898 </i>
    <i name="atom">    588.62352690 </i>
    <i name="e_fr_energy">    -36.85760974 </i>
    <i name="e_wo_entrp">    -36.85760972 </i>
    <i name="e_0_energy">    -36.85760973 </i>
   </energy>
  </scstep>
  <scstep>
   <time name="diag">   81.14   81.59</time>
   <time name="diis">  201.00  201.45</time>
   <time name="orth">    3.10    3.11</time>
   <time name="total">  317.94  319.20</time>
   <energy>
    <i name="e_fr_energy">    -36.85760974 </i>
    <i name="e_wo_entrp">    -36.85760972 </i>
    <i name="e_0_energy">    -36.85760973 </i>
   </energy>
  </scstep>
  <scstep>
   <time name="diag">   80.68   81.45</time>
   <time name="diis">  193.77  195.28</time>
   <time name="orth">    3.09    3.15</time>
   <time name="total">  311.14  313.78</time>
   <energy>
    <i name="e_fr_energy">    -36.85760974 </i>
    <i name="e_wo_entrp">    -36.85760972 </i>
    <i name="e_0_energy">    -36.85760973 </i>
   </energy>
  </scstep>
  <scstep>
   <time name="diag">   80.96   81.56</time>
   <time name="diis">  181.01  182.55</time>
   <time name="orth">    3.08    3.08</time>
   <time name="total">  296.98  299.41</time>
   <energy>
    <i name="e_fr_energy">    -36.85760974 </i>
    <i name="e_wo_entrp">    -36.85760972 </i>
    <i name="e_0_energy">    -36.85760973 </i>
   </energy>
  </scstep>
  <scstep>
   <time name="diag">   81.05   81.52</time>
   <time name="diis">  174.69  175.30</time>
   <time name="orth">    3.09    3.10</time>
   <time name="total">  291.01  292.38</time>
   <energy>
    <i name="e_fr_energy">    -36.85760974 </i>
    <i name="e_wo_entrp">    -36.85760972 </i>
    <i name="e_0_energy">    -36.85760973 </i>
   </energy>
  </scstep>
  <scstep>
   <time name="diag">   80.84   81.51</time>
   <time name="diis">  173.24  174.61</time>
   <time name="orth">    3.08    3.08</time>
   <time name="total">  259.63  261.78</time>
   <energy>
    <i name="alphaZ">      6.18334092 </i>
    <i name="ewald">   2448.46489022 </i>
    <i name="hartreedc">  -2942.75241024 </i>
    <i name="XCdc">     57.13887938 </i>
    <i name="pawpsdc">    268.76116322 </i>
    <i name="pawaedc">   -273.87239352 </i>
    <i name="eentropy">     -0.00000002 </i>
    <i name="bandstr">   -189.40460661 </i>
    <i name="atom">    588.62352690 </i>
    <i name="e_fr_energy">    -36.85760974 </i>
    <i name="e_wo_entrp">    -36.85760972 </i>
    <i name="e_0_energy">    -36.85760973 </i>
   </energy>
  </scstep>
  <structure>
   <crystal>
    <varray name="basis" >
     <v>       4.38073802       0.00000000       0.00000000 </v>
     <v>       0.00000000       2.45711600       0.00000000 </v>
     <v>       0.00000000       0.00000000      19.58735272 </v>
    </varray>
    <i name="volume">    210.83790140 </i>
    <varray name="rec_basis" >
     <v>       0.22827204       0.00000000       0.00000000 </v>
     <v>       0.00000000       0.40698119       0.00000000 </v>
     <v>       0.00000000       0.00000000       0.05105335 </v>
    </varray>
   </crystal>
   <varray name="positions" >
    <v>       0.99945791      -0.00000000      -0.00000000 </v>
    <v>       0.16720876       0.50000000       0.00000000 </v>
    <v>       0.49945791       0.50000000      -0.00000000 </v>
    <v>       0.66720876      -0.00000000       0.00000000 </v>
   </varray>
  </structure>
  <varray name="forces" >
   <v>       0.00001127      -0.00000000      -0.00000000 </v>
   <v>      -0.00001127       0.00000000       0.00000000 </v>
   <v>       0.00001127       0.00000000      -0.00000000 </v>
   <v>      -0.00001127       0.00000000       0.00000000 </v>
  </varray>
  <varray name="stress" >
   <v>     -41.37931068       0.00000000       0.00000000 </v>
   <v>       0.00000000       0.00073162       0.00000000 </v>
   <v>       0.00000000       0.00000000      -0.01014011 </v>
  </varray>
  <energy>
   <i name="e_fr_energy">    -36.85760974 </i>
   <i name="e_wo_entrp">    -36.85760973 </i>
   <i name="e_0_energy">     -0.00000002 </i>
  </energy>
  <time name="totalsc"> 1874.97 1885.85</time>
 </calculation>
 <calculation>
  <scstep>
   <time name="dav">  245.54  246.35</time>
   <time name="total">  279.47  280.42</time>
   <energy>
    <i name="alphaZ">      6.18334092 </i>
    <i name="ewald">   2448.46489130 </i>
    <i name="hartreedc">  -2942.75241076 </i>
    <i name="XCdc">     57.13887941 </i>
    <i name="pawpsdc">    268.76116331 </i>
    <i name="pawaedc">   -273.87239361 </i>
    <i name="eentropy">     -0.00000002 </i>
    <i name="bandstr">   -189.40460720 </i>
    <i name="atom">    588.62352690 </i>
    <i name="e_fr_energy">    -36.85760974 </i>
    <i name="e_wo_entrp">    -36.85760972 </i>
    <i name="e_0_energy">    -36.85760973 </i>
   </energy>
  </scstep>
  <scstep>
   <time name="diag">   81.26   81.49</time>
   <time name="diis">  153.20  153.33</time>
   <time name="orth">    3.08    3.08</time>
   <time name="total">  271.51  271.89</time>
   <energy>
    <i name="e_fr_energy">    -36.85760974 </i>
    <i name="e_wo_entrp">    -36.85760972 </i>
    <i name="e_0_energy">    -36.85760973 </i>
   </energy>
  </scstep>
  <scstep>
   <time name="diag">   81.15   81.50</time>
   <time name="diis">  153.47  153.84</time>
   <time name="orth">    3.10    3.11</time>
   <time name="total">  271.45  272.32</time>
   <energy>
    <i name="e_fr_energy">    -36.85760974 </i>
    <i name="e_wo_entrp">    -36.85760972 </i>
    <i name="e_0_energy">    -36.85760973 </i>
   </energy>
  </scstep>
  <scstep>
   <time name="diag">   80.79   81.48</time>
   <time name="diis">  152.87  154.23</time>
   <time name="orth">    3.09    3.09</time>
   <time name="total">  269.85  272.31</time>
   <energy>
    <i name="e_fr_energy">    -36.85760974 </i>
    <i name="e_wo_entrp">    -36.85760972 </i>
    <i name="e_0_energy">    -36.85760973 </i>
   </energy>
  </scstep>
  <scstep>
   <time name="diag">   80.80   81.40</time>
   <time name="diis">  151.06  152.12</time>
   <time name="orth">    3.09    3.09</time>
   <time name="total">  268.26  270.07</time>
   <energy>
    <i name="e_fr_energy">    -36.85760974 </i>
    <i name="e_wo_entrp">    -36.85760972 </i>
    <i name="e_0_energy">    -36.85760973 </i>
   </energy>
  </scstep>
  <scstep>
   <time name="diag">   81.11   81.44</time>
   <time name="diis">  141.83  143.12</time>
   <time name="orth">    3.09    3.10</time>
   <time name="total">  259.08  260.88</time>
   <energy>
    <i name="e_fr_energy">    -36.85760974 </i>
    <i name="e_wo_entrp">    -36.85760972 </i>
    <i name="e_0_energy">    -36.85760973 </i>
   </energy>
  </scstep>
  <scstep>
   <time name="diag">   81.27   81.50</time>
   <time name="diis">  151.11  151.43</time>
   <time name="orth">    3.09    3.09</time>
   <time name="total">  237.96  238.56</time>
   <energy>
    <i name="alphaZ">      6.18334092 </i>
    <i name="ewald">   2448.46489130 </i>
    <i name="hartreedc">  -2942.75241047 </i>
    <i name="XCdc">     57.13887939 </i>
    <i name="pawpsdc">    268.76116352 </i>
    <i name="pawaedc">   -273.87239383 </i>
    <i name="eentropy">     -0.00000002 </i>
    <i name="bandstr">   -189.40460746 </i>
    <i name="atom">    588.62352690 </i>
    <i name="e_fr_energy">    -36.85760974 </i>
    <i name="e_wo_entrp">    -36.85760972 </i>
    <i name="e_0_energy">    -36.85760973 </i>
   </energy>
  </scstep>
  <structure>
   <crystal>
    <varray name="basis" >
     <v>       4.38073802       0.00000000       0.00000000 </v>
     <v>       0.00000000       2.45711600       0.00000000 </v>
     <v>       0.00000000       0.00000000      19.58735272 </v>
    </varray>
    <i name="volume">    210.83790140 </i>
    <varray name="rec_basis" >
     <v>       0.22827204       0.00000000       0.00000000 </v>
     <v>       0.00000000       0.40698119       0.00000000 </v>
     <v>       0.00000000       0.00000000       0.05105335 </v>
    </varray>
   </crystal>
   <varray name="positions" >
    <v>       0.99945792      -0.00000000      -0.00000000 </v>
    <v>       0.16720875       0.50000000       0.00000000 </v>
    <v>       0.49945792       0.50000000      -0.00000000 </v>
    <v>       0.66720875      -0.00000000       0.00000000 </v>
   </varray>
  </structure>
  <varray name="forces" >
   <v>       0.00000182      -0.00000000       0.00000000 </v>
   <v>      -0.00000182       0.00000000      -0.00000000 </v>
   <v>       0.00000182       0.00000000       0.00000000 </v>
   <v>      -0.00000182      -0.00000000      -0.00000000 </v>
  </varray>
  <varray name="stress" >
   <v>     -41.37932982       0.00000000       0.00000000 </v>
   <v>       0.00000000       0.00077102       0.00000000 </v>
   <v>       0.00000000       0.00000000      -0.01015171 </v>
  </varray>
  <energy>
   <i name="e_fr_energy">    -36.85760974 </i>
   <i name="e_wo_entrp">    -36.85760973 </i>
   <i name="e_0_energy">     -0.00000002 </i>
  </energy>
  <time name="totalsc"> 1960.68 1970.11</time>
 </calculation>
 <calculation>
  <scstep>
   <time name="dav">  250.80  251.28</time>
   <time name="total">  283.77  284.49</time>
   <energy>
    <i name="alphaZ">      6.18334092 </i>
    <i name="ewald">   2448.46489151 </i>
    <i name="hartreedc">  -2942.75241060 </i>
    <i name="XCdc">     57.13887939 </i>
    <i name="pawpsdc">    268.76116352 </i>
    <i name="pawaedc">   -273.87239383 </i>
    <i name="eentropy">     -0.00000002 </i>
    <i name="bandstr">   -189.40460754 </i>
    <i name="atom">    588.62352690 </i>
    <i name="e_fr_energy">    -36.85760974 </i>
    <i name="e_wo_entrp">    -36.85760972 </i>
    <i name="e_0_energy">    -36.85760973 </i>
   </energy>
  </scstep>
  <scstep>
   <time name="diag">   80.97   81.52</time>
   <time name="diis">  129.47  130.55</time>
   <time name="orth">    3.10    3.12</time>
   <time name="total">  246.54  248.49</time>
   <energy>
    <i name="e_fr_energy">    -36.85760974 </i>
    <i name="e_wo_entrp">    -36.85760972 </i>
    <i name="e_0_energy">    -36.85760973 </i>
   </energy>
  </scstep>
  <scstep>
   <time name="diag">   80.88   81.44</time>
   <time name="diis">  133.26  134.27</time>
   <time name="orth">    3.09    3.10</time>
   <time name="total">  249.71  251.63</time>
   <energy>
    <i name="e_fr_energy">    -36.85760974 </i>
    <i name="e_wo_entrp">    -36.85760972 </i>
    <i name="e_0_energy">    -36.85760973 </i>
   </energy>
  </scstep>
  <scstep>
   <time name="diag">   80.46   81.31</time>
   <time name="diis">  130.94  131.12</time>
   <time name="orth">    3.14    3.15</time>
   <time name="total">  248.49  249.59</time>
   <energy>
    <i name="e_fr_energy">    -36.85760974 </i>
    <i name="e_wo_entrp">    -36.85760972 </i>
    <i name="e_0_energy">    -36.85760973 </i>
   </energy>
  </scstep>
  <scstep>
   <time name="diag">   81.29   81.32</time>
   <time name="diis">  131.89  131.93</time>
   <time name="orth">    3.11    3.11</time>
   <time name="total">  249.88  249.97</time>
   <energy>
    <i name="e_fr_energy">    -36.85760974 </i>
    <i name="e_wo_entrp">    -36.85760972 </i>
    <i name="e_0_energy">    -36.85760973 </i>
   </energy>
  </scstep>
  <scstep>
   <time name="diag">   81.43   81.46</time>
   <time name="diis">  136.72  136.77</time>
   <time name="orth">    3.08    3.10</time>
   <time name="total">  223.79  223.88</time>
   <energy>
    <i name="alphaZ">      6.18334092 </i>
    <i name="ewald">   2448.46489151 </i>
    <i name="hartreedc">  -2942.75241097 </i>
    <i name="XCdc">     57.13887940 </i>
    <i name="pawpsdc">    268.76116395 </i>
    <i name="pawaedc">   -273.87239426 </i>
    <i name="eentropy">     -0.00000002 </i>
    <i name="bandstr">   -189.40460718 </i>
    <i name="atom">    588.62352690 </i>
    <i name="e_fr_energy">    -36.85760974 </i>
    <i name="e_wo_entrp">    -36.85760972 </i>
    <i name="e_0_energy">    -36.85760973 </i>
   </energy>
  </scstep>
  <structure>
   <crystal>
    <varray name="basis" >
     <v>       4.38073802       0.00000000       0.00000000 </v>
     <v>       0.00000000       2.45711600       0.00000000 </v>
     <v>       0.00000000       0.00000000      19.58735272 </v>
    </varray>
    <i name="volume">    210.83790140 </i>
    <varray name="rec_basis" >
     <v>       0.22827204       0.00000000       0.00000000 </v>
     <v>       0.00000000       0.40698119       0.00000000 </v>
     <v>       0.00000000       0.00000000       0.05105335 </v>
    </varray>
   </crystal>
   <varray name="positions" >
    <v>       0.99945792      -0.00000000      -0.00000000 </v>
    <v>       0.16720874       0.50000000       0.00000000 </v>
    <v>       0.49945792       0.50000000      -0.00000000 </v>
    <v>       0.66720874      -0.00000000       0.00000000 </v>
   </varray>
  </structure>
  <varray name="forces" >
   <v>       0.00000184      -0.00000000       0.00000000 </v>
   <v>      -0.00000184       0.00000000       0.00000000 </v>
   <v>       0.00000184      -0.00000000       0.00000000 </v>
   <v>      -0.00000184       0.00000000       0.00000000 </v>
  </varray>
  <varray name="stress" >
   <v>     -41.37933049       0.00000000       0.00000000 </v>
   <v>       0.00000000       0.00076954       0.00000000 </v>
   <v>       0.00000000       0.00000000      -0.01014794 </v>
  </varray>
  <energy>
   <i name="e_fr_energy">    -36.85760974 </i>
   <i name="e_wo_entrp">    -36.85760973 </i>
   <i name="e_0_energy">     -0.00000002 </i>
  </energy>
  <time name="totalsc"> 1607.31 1613.80</time>
 </calculation>
 <calculation>
  <scstep>
   <time name="dav">  315.04  316.87</time>
   <time name="total">  348.28  350.51</time>
   <energy>
    <i name="alphaZ">      6.18334092 </i>
    <i name="ewald">   2448.46487837 </i>
    <i name="hartreedc">  -2942.75240521 </i>
    <i name="XCdc">     57.13887903 </i>
    <i name="pawpsdc">    268.76116395 </i>
    <i name="pawaedc">   -273.87239426 </i>
    <i name="eentropy">     -0.00000002 </i>
    <i name="bandstr">   -189.40459942 </i>
    <i name="atom">    588.62352690 </i>
    <i name="e_fr_energy">    -36.85760974 </i>
    <i name="e_wo_entrp">    -36.85760972 </i>
    <i name="e_0_energy">    -36.85760973 </i>
   </energy>
  </scstep>
  <scstep>
   <time name="diag">   80.90   81.43</time>
   <time name="diis">  199.80  199.92</time>
   <time name="orth">    3.08    3.08</time>
   <time name="total">  317.51  318.24</time>
   <energy>
    <i name="e_fr_energy">    -36.85760974 </i>
    <i name="e_wo_entrp">    -36.85760972 </i>
    <i name="e_0_energy">    -36.85760973 </i>
   </energy>
  </scstep>
  <scstep>
   <time name="diag">   81.24   81.48</time>
   <time name="diis">  209.14  211.04</time>
   <time name="orth">    3.08    3.08</time>
   <time name="total">  326.84  329.31</time>
   <energy>
    <i name="e_fr_energy">    -36.85760974 </i>
    <i name="e_wo_entrp">    -36.85760972 </i>
    <i name="e_0_energy">    -36.85760973 </i>
   </energy>
  </scstep>
  <scstep>
   <time name="diag">   81.38   81.56</time>
   <time name="diis">  185.64  186.31</time>
   <time name="orth">    3.08    3.08</time>
   <time name="total">  303.84  304.96</time>
   <energy>
    <i name="e_fr_energy">    -36.85760974 </i>
    <i name="e_wo_entrp">    -36.85760972 </i>
    <i name="e_0_energy">    -36.85760973 </i>
   </energy>
  </scstep>
  <scstep>
   <time name="diag">   81.01   81.60</time>
   <time name="diis">  172.71  173.98</time>
   <time name="orth">    3.09    3.11</time>
   <time name="total">  259.32  261.22</time>
   <energy>
    <i name="alphaZ">      6.18334092 </i>
    <i name="ewald">   2448.46487837 </i>
    <i name="hartreedc">  -2942.75239965 </i>
    <i name="XCdc">     57.13887876 </i>
    <i name="pawpsdc">    268.76114476 </i>
    <i name="pawaedc">   -273.87237497 </i>
    <i name="eentropy">     -0.00000002 </i>
    <i name="bandstr">   -189.40460481 </i>
    <i name="atom">    588.62352690 </i>
    <i name="e_fr_energy">    -36.85760974 </i>
    <i name="e_wo_entrp">    -36.85760972 </i>
    <i name="e_0_energy">    -36.85760973 </i>
   </energy>
  </scstep>
  <structure>
   <crystal>
    <varray name="basis" >
     <v>       4.38073802       0.00000000       0.00000000 </v>
     <v>       0.00000000       2.45711600       0.00000000 </v>
     <v>       0.00000000       0.00000000      19.58735272 </v>
    </varray>
    <i name="volume">    210.83790140 </i>
    <varray name="rec_basis" >
     <v>       0.22827204       0.00000000       0.00000000 </v>
     <v>       0.00000000       0.40698119       0.00000000 </v>
     <v>       0.00000000       0.00000000       0.05105335 </v>
    </varray>
   </crystal>
   <varray name="positions" >
    <v>       0.99945778       0.00000000      -0.00000000 </v>
    <v>       0.16720888       0.50000000       0.00000000 </v>
    <v>       0.49945778       0.50000000      -0.00000000 </v>
    <v>       0.66720888      -0.00000000       0.00000000 </v>
   </varray>
  </structure>
  <varray name="forces" >
   <v>       0.00006047       0.00000000       0.00000000 </v>
   <v>      -0.00006047      -0.00000000      -0.00000000 </v>
   <v>       0.00006047       0.00000000       0.00000000 </v>
   <v>      -0.00006047      -0.00000000      -0.00000000 </v>
  </varray>
  <varray name="stress" >
   <v>     -41.37922605       0.00000000       0.00000000 </v>
   <v>       0.00000000       0.00056708       0.00000000 </v>
   <v>       0.00000000       0.00000000      -0.01015530 </v>
  </varray>
  <energy>
   <i name="e_fr_energy">    -36.85760974 </i>
   <i name="e_wo_entrp">    -36.85760973 </i>
   <i name="e_0_energy">     -0.00000002 </i>
  </energy>
  <time name="totalsc"> 1658.96 1667.84</time>
 </calculation>
 <calculation>
  <scstep>
   <time name="dav">  318.36  320.89</time>
   <time name="total">  351.47  354.32</time>
   <energy>
    <i name="alphaZ">      6.18334092 </i>
    <i name="ewald">   2448.46489193 </i>
    <i name="hartreedc">  -2942.75240538 </i>
    <i name="XCdc">     57.13887915 </i>
    <i name="pawpsdc">    268.76114421 </i>
    <i name="pawaedc">   -273.87237442 </i>
    <i name="eentropy">     -0.00000002 </i>
    <i name="bandstr">   -189.40461304 </i>
    <i name="atom">    588.62352690 </i>
    <i name="e_fr_energy">    -36.85760974 </i>
    <i name="e_wo_entrp">    -36.85760972 </i>
    <i name="e_0_energy">    -36.85760973 </i>
   </energy>
  </scstep>
  <scstep>
   <time name="diag">   80.86   81.47</time>
   <time name="diis">  190.45  190.68</time>
   <time name="orth">    3.10    3.10</time>
   <time name="total">  306.77  307.67</time>
   <energy>
    <i name="e_fr_energy">    -36.85760974 </i>
    <i name="e_wo_entrp">    -36.85760972 </i>
    <i name="e_0_energy">    -36.85760973 </i>
   </energy>
  </scstep>
  <scstep>
   <time name="diag">   81.25   81.54</time>
   <time name="diis">  207.46  209.28</time>
   <time name="orth">    3.10    3.10</time>
   <time name="total">  324.58  326.75</time>
   <energy>
    <i name="e_fr_energy">    -36.85760974 </i>
    <i name="e_wo_entrp">    -36.85760972 </i>
    <i name="e_0_energy">    -36.85760973 </i>
   </energy>
  </scstep>
  <scstep>
   <time name="diag">   81.39   81.45</time>
   <time name="diis">  180.59  180.75</time>
   <time name="orth">    3.11    3.11</time>
   <time name="total">  297.22  297.48</time>
   <energy>
    <i name="e_fr_energy">    -36.85760974 </i>
    <i name="e_wo_entrp">    -36.85760972 </i>
    <i name="e_0_energy">    -36.85760973 </i>
   </energy>
  </scstep>
  <scstep>
   <time name="diag">   81.34   81.54</time>
   <time name="diis">  174.89  174.92</time>
   <time name="orth">    3.08    3.08</time>
   <time name="total">  261.80  262.07</time>
   <energy>
    <i name="alphaZ">      6.18334092 </i>
[...]
       <r>   -9.3567    1.0000 </r>
       <r>   -5.5134    1.0000 </r>
       <r>   -5.5134    1.0000 </r>
       <r>   -0.4932    0.0000 </r>
       <r>   -0.4932    0.0000 </r>
       <r>    4.1363    0.0000 </r>
       <r>    4.1363    0.0000 </r>
      </set>
      <set comment="kpoint 209">
       <r>  -18.6216    1.0000 </r>
       <r>  -16.8050    1.0000 </r>
       <r>  -14.2162    1.0000 </r>
       <r>  -12.5492    1.0000 </r>
       <r>  -12.2981    1.0000 </r>
       <r>  -10.7855    1.0000 </r>
       <r>   -6.2752    1.0000 </r>
       <r>   -4.3983    1.0000 </r>
       <r>   -1.2052    0.0000 </r>
       <r>    0.9539    0.0000 </r>
       <r>    5.3151    0.0000 </r>
       <r>    6.0846    0.0000 </r>
      </set>
      <set comment="kpoint 210">
       <r>  -18.6124    1.0000 </r>
       <r>  -16.7978    1.0000 </r>
       <r>  -14.2830    1.0000 </r>
       <r>  -12.6121    1.0000 </r>
       <r>  -12.2236    1.0000 </r>
       <r>  -10.7252    1.0000 </r>
       <r>   -6.2669    1.0000 </r>
       <r>   -4.4023    1.0000 </r>
       <r>   -1.2115    0.0000 </r>
       <r>    0.9313    0.0000 </r>
       <r>    5.3280    0.0000 </r>
       <r>    6.0997    0.0000 </r>
      </set>
      <set comment="kpoint 211">
       <r>  -18.5848    1.0000 </r>
       <r>  -16.7768    1.0000 </r>
       <r>  -14.4572    1.0000 </r>
       <r>  -12.7783    1.0000 </r>
       <r>  -12.0264    1.0000 </r>
       <r>  -10.5671    1.0000 </r>
       <r>   -6.2421    1.0000 </r>
       <r>   -4.4148    1.0000 </r>
       <r>   -1.2290    0.0000 </r>
       <r>    0.8650    0.0000 </r>
       <r>    5.3665    0.0000 </r>
       <r>    6.1448    0.0000 </r>
      </set>
      <set comment="kpoint 212">
       <r>  -18.5388    1.0000 </r>
       <r>  -16.7432    1.0000 </r>
       <r>  -14.6907    1.0000 </r>
       <r>  -13.0066    1.0000 </r>
       <r>  -11.7544    1.0000 </r>
       <r>  -10.3545    1.0000 </r>
       <r>   -6.2010    1.0000 </r>
       <r>   -4.4370    1.0000 </r>
       <r>   -1.2535    0.0000 </r>
       <r>    0.7593    0.0000 </r>
       <r>    5.4298    0.0000 </r>
       <r>    6.2189    0.0000 </r>
      </set>
      <set comment="kpoint 213">
       <r>  -18.4747    1.0000 </r>
       <r>  -16.7000    1.0000 </r>
       <r>  -14.9467    1.0000 </r>
       <r>  -13.2662    1.0000 </r>
       <r>  -11.4438    1.0000 </r>
       <r>  -10.1215    1.0000 </r>
       <r>   -6.1442    1.0000 </r>
       <r>   -4.4709    1.0000 </r>
       <r>   -1.2788    0.0000 </r>
       <r>    0.6205    0.0000 </r>
       <r>    5.5111    0.0000 </r>
       <r>    5.8699    0.0000 </r>
      </set>
      <set comment="kpoint 214">
       <r>  -18.3925    1.0000 </r>
       <r>  -16.6532    1.0000 </r>
       <r>  -15.1999    1.0000 </r>
       <r>  -13.5387    1.0000 </r>
       <r>  -11.1167    1.0000 </r>
       <r>   -9.8906    1.0000 </r>
       <r>   -6.0722    1.0000 </r>
       <r>   -4.5186    1.0000 </r>
       <r>   -1.2977    0.0000 </r>
       <r>    0.4561    0.0000 </r>
       <r>    5.3500    0.0000 </r>
       <r>    5.6639    0.0000 </r>
      </set>
      <set comment="kpoint 215">
       <r>  -18.2927    1.0000 </r>
       <r>  -16.6151    1.0000 </r>
       <r>  -15.4278    1.0000 </r>
       <r>  -13.8138    1.0000 </r>
       <r>  -10.7878    1.0000 </r>
       <r>   -9.6776    1.0000 </r>
       <r>   -5.9860    1.0000 </r>
       <r>   -4.5818    1.0000 </r>
       <r>   -1.3030    0.0000 </r>
       <r>    0.2735    0.0000 </r>
       <r>    4.9333    0.0000 </r>
       <r>    5.7952    0.0000 </r>
      </set>
      <set comment="kpoint 216">
       <r>  -18.1755    1.0000 </r>
       <r>  -16.6090    1.0000 </r>
       <r>  -15.6008    1.0000 </r>
       <r>  -14.0850    1.0000 </r>
       <r>  -10.4682    1.0000 </r>
       <r>   -9.4950    1.0000 </r>
       <r>   -5.8867    1.0000 </r>
       <r>   -4.6614    1.0000 </r>
       <r>   -1.2886    0.0000 </r>
       <r>    0.0802    0.0000 </r>
       <r>    4.5724    0.0000 </r>
       <r>    5.5322    0.0000 </r>
      </set>
      <set comment="kpoint 217">
       <r>  -18.0414    1.0000 </r>
       <r>  -16.6658    1.0000 </r>
       <r>  -15.6845    1.0000 </r>
       <r>  -14.3479    1.0000 </r>
       <r>  -10.1673    1.0000 </r>
       <r>   -9.3532    1.0000 </r>
       <r>   -5.7757    1.0000 </r>
       <r>   -4.7572    1.0000 </r>
       <r>   -1.2502    0.0000 </r>
       <r>   -0.1173    0.0000 </r>
       <r>    4.2846    0.0000 </r>
       <r>    5.0921    0.0000 </r>
      </set>
      <set comment="kpoint 218">
       <r>  -17.8913    1.0000 </r>
       <r>  -16.7941    1.0000 </r>
       <r>  -15.6682    1.0000 </r>
       <r>  -14.5994    1.0000 </r>
       <r>   -9.8944    1.0000 </r>
       <r>   -9.2606    1.0000 </r>
       <r>   -5.6547    1.0000 </r>
       <r>   -4.8675    1.0000 </r>
       <r>   -1.1855    0.0000 </r>
       <r>   -0.3128    0.0000 </r>
       <r>    4.0787    0.0000 </r>
       <r>    4.7099    0.0000 </r>
      </set>
      <set comment="kpoint 219">
       <r>  -17.7261    1.0000 </r>
       <r>  -16.9690    1.0000 </r>
       <r>  -15.5755    1.0000 </r>
       <r>  -14.8368    1.0000 </r>
       <r>   -9.6582    1.0000 </r>
       <r>   -9.2236    1.0000 </r>
       <r>   -5.5259    1.0000 </r>
       <r>   -4.9897    1.0000 </r>
       <r>   -1.0941    0.0000 </r>
       <r>   -0.5010    0.0000 </r>
       <r>    3.9610    0.0000 </r>
       <r>    4.3949    0.0000 </r>
      </set>
      <set comment="kpoint 220">
       <r>  -17.5475    1.0000 </r>
       <r>  -17.1624    1.0000 </r>
       <r>  -15.4333    1.0000 </r>
       <r>  -15.0573    1.0000 </r>
       <r>   -9.4670    1.0000 </r>
       <r>   -9.2458    1.0000 </r>
       <r>   -5.3919    1.0000 </r>
       <r>   -5.1203    1.0000 </r>
       <r>   -0.9772    0.0000 </r>
       <r>   -0.6773    0.0000 </r>
       <r>    3.9350    0.0000 </r>
       <r>    4.1561    0.0000 </r>
      </set>
      <set comment="kpoint 221">
       <r>  -17.3581    1.0000 </r>
       <r>  -17.3581    1.0000 </r>
       <r>  -15.2578    1.0000 </r>
       <r>  -15.2578    1.0000 </r>
       <r>   -9.3278    1.0000 </r>
       <r>   -9.3278    1.0000 </r>
       <r>   -5.2555    1.0000 </r>
       <r>   -5.2555    1.0000 </r>
       <r>   -0.8372    0.0000 </r>
       <r>   -0.8372    0.0000 </r>
       <r>    4.0010    0.0000 </r>
       <r>    4.0010    0.0000 </r>
      </set>
      <set comment="kpoint 222">
       <r>  -18.1929    1.0000 </r>
       <r>  -17.2808    1.0000 </r>
       <r>  -13.8304    1.0000 </r>
       <r>  -12.9961    1.0000 </r>
       <r>  -11.9509    1.0000 </r>
       <r>  -11.1896    1.0000 </r>
       <r>   -5.8162    1.0000 </r>
       <r>   -4.8720    1.0000 </r>
       <r>   -0.6977    0.0000 </r>
       <r>    0.3841    0.0000 </r>
       <r>    5.9214    0.0000 </r>
       <r>    6.6459    0.0000 </r>
      </set>
      <set comment="kpoint 223">
       <r>  -18.1839    1.0000 </r>
       <r>  -17.2726    1.0000 </r>
       <r>  -13.8977    1.0000 </r>
       <r>  -13.0609    1.0000 </r>
       <r>  -11.8787    1.0000 </r>
       <r>  -11.1247    1.0000 </r>
       <r>   -5.8092    1.0000 </r>
       <r>   -4.8703    1.0000 </r>
       <r>   -0.7110    0.0000 </r>
       <r>    0.3635    0.0000 </r>
       <r>    5.9343    0.0000 </r>
       <r>    6.6620    0.0000 </r>
      </set>
      <set comment="kpoint 224">
       <r>  -18.1568    1.0000 </r>
       <r>  -17.2479    1.0000 </r>
       <r>  -14.0737    1.0000 </r>
       <r>  -13.2315    1.0000 </r>
       <r>  -11.6884    1.0000 </r>
       <r>  -10.9544    1.0000 </r>
       <r>   -5.7884    1.0000 </r>
       <r>   -4.8656    1.0000 </r>
       <r>   -0.7496    0.0000 </r>
       <r>    0.3033    0.0000 </r>
       <r>    5.9725    0.0000 </r>
       <r>    6.7096    0.0000 </r>
      </set>
      <set comment="kpoint 225">
       <r>  -18.1117    1.0000 </r>
       <r>  -17.2072    1.0000 </r>
       <r>  -14.3117    1.0000 </r>
       <r>  -13.4648    1.0000 </r>
       <r>  -11.4275    1.0000 </r>
       <r>  -10.7235    1.0000 </r>
       <r>   -5.7542    1.0000 </r>
       <r>   -4.8588    1.0000 </r>
       <r>   -0.8090    0.0000 </r>
       <r>    0.2076    0.0000 </r>
       <r>    6.0343    0.0000 </r>
       <r>    6.6880    0.0000 </r>
      </set>
      <set comment="kpoint 226">
       <r>  -18.0489    1.0000 </r>
       <r>  -17.1515    1.0000 </r>
       <r>  -14.5775    1.0000 </r>
       <r>  -13.7286    1.0000 </r>
       <r>  -11.1319    1.0000 </r>
       <r>  -10.4670    1.0000 </r>
       <r>   -5.7072    1.0000 </r>
       <r>   -4.8518    1.0000 </r>
       <r>   -0.8827    0.0000 </r>
       <r>    0.0828    0.0000 </r>
       <r>    6.0625    0.0000 </r>
       <r>    6.2002    0.0000 </r>
      </set>
      <set comment="kpoint 227">
       <r>  -17.9686    1.0000 </r>
       <r>  -17.0824    1.0000 </r>
       <r>  -14.8504    1.0000 </r>
       <r>  -14.0043    1.0000 </r>
       <r>  -10.8241    1.0000 </r>
       <r>  -10.2074    1.0000 </r>
       <r>   -5.6485    1.0000 </r>
       <r>   -4.8467    1.0000 </r>
       <r>   -0.9628    0.0000 </r>
       <r>   -0.0635    0.0000 </r>
       <r>    5.6109    0.0000 </r>
       <r>    6.2089    0.0000 </r>
      </set>
      <set comment="kpoint 228">
       <r>  -17.8714    1.0000 </r>
       <r>  -17.0028    1.0000 </r>
       <r>  -15.1171    1.0000 </r>
       <r>  -14.2812    1.0000 </r>
       <r>  -10.5190    1.0000 </r>
       <r>   -9.9602    1.0000 </r>
       <r>   -5.5796    1.0000 </r>
       <r>   -4.8464    1.0000 </r>
       <r>   -1.0406    0.0000 </r>
       <r>   -0.2236    0.0000 </r>
       <r>    5.1530    0.0000 </r>
       <r>    5.6992    0.0000 </r>
      </set>
      <set comment="kpoint 229">
       <r>  -17.7578    1.0000 </r>
       <r>  -16.9182    1.0000 </r>
       <r>  -15.3661    1.0000 </r>
       <r>  -14.5526    1.0000 </r>
       <r>  -10.2280    1.0000 </r>
       <r>   -9.7379    1.0000 </r>
       <r>   -5.5020    1.0000 </r>
       <r>   -4.8540    1.0000 </r>
       <r>   -1.1075    0.0000 </r>
       <r>   -0.3896    0.0000 </r>
       <r>    4.7520    0.0000 </r>
       <r>    5.2347    0.0000 </r>
      </set>
      <set comment="kpoint 230">
       <r>  -17.6290    1.0000 </r>
       <r>  -16.8401    1.0000 </r>
       <r>  -15.5826    1.0000 </r>
       <r>  -14.8137    1.0000 </r>
       <r>   -9.9611    1.0000 </r>
       <r>   -9.5507    1.0000 </r>
       <r>   -5.4181    1.0000 </r>
       <r>   -4.8721    1.0000 </r>
       <r>   -1.1558    0.0000 </r>
       <r>   -0.5541    0.0000 </r>
       <r>    4.4189    0.0000 </r>
       <r>    4.8254    0.0000 </r>
      </set>
      <set comment="kpoint 231">
       <r>  -17.4865    1.0000 </r>
       <r>  -16.7900    1.0000 </r>
       <r>  -15.7425    1.0000 </r>
       <r>  -15.0605    1.0000 </r>
       <r>   -9.7277    1.0000 </r>
       <r>   -9.4079    1.0000 </r>
       <r>   -5.3304    1.0000 </r>
       <r>   -4.9029    1.0000 </r>
       <r>   -1.1793    0.0000 </r>
       <r>   -0.7103    0.0000 </r>
       <r>    4.1627    0.0000 </r>
       <r>    4.4807    0.0000 </r>
      </set>
      <set comment="kpoint 232">
       <r>  -17.3331    1.0000 </r>
       <r>  -16.7995    1.0000 </r>
       <r>  -15.8129    1.0000 </r>
       <r>  -15.2888    1.0000 </r>
       <r>   -9.5365    1.0000 </r>
       <r>   -9.3170    1.0000 </r>
       <r>   -5.2419    1.0000 </r>
       <r>   -4.9477    1.0000 </r>
       <r>   -1.1737    0.0000 </r>
       <r>   -0.8518    0.0000 </r>
       <r>    3.9909    0.0000 </r>
       <r>    4.2097    0.0000 </r>
      </set>
      <set comment="kpoint 233">
       <r>  -17.1736    1.0000 </r>
       <r>  -16.8827    1.0000 </r>
       <r>  -15.7789    1.0000 </r>
       <r>  -15.4927    1.0000 </r>
       <r>   -9.3952    1.0000 </r>
       <r>   -9.2834    1.0000 </r>
       <r>   -5.1561    1.0000 </r>
       <r>   -5.0060    1.0000 </r>
       <r>   -1.1370    0.0000 </r>
       <r>   -0.9731    0.0000 </r>
       <r>    3.9087    0.0000 </r>
       <r>    4.0203    0.0000 </r>
      </set>
      <set comment="kpoint 234">
       <r>  -17.0173    1.0000 </r>
       <r>  -17.0173    1.0000 </r>
       <r>  -15.6622    1.0000 </r>
       <r>  -15.6622    1.0000 </r>
       <r>   -9.3097    1.0000 </r>
       <r>   -9.3097    1.0000 </r>
       <r>   -5.0764    1.0000 </r>
       <r>   -5.0764    1.0000 </r>
       <r>   -1.0694    0.0000 </r>
       <r>   -1.0694    0.0000 </r>
       <r>    3.9188    0.0000 </r>
       <r>    3.9188    0.0000 </r>
      </set>
      <set comment="kpoint 235">
       <r>  -17.7450    1.0000 </r>
       <r>  -17.7450    1.0000 </r>
       <r>  -13.4234    1.0000 </r>
       <r>  -13.4234    1.0000 </r>
       <r>  -11.5796    1.0000 </r>
       <r>  -11.5796    1.0000 </r>
       <r>   -5.3468    1.0000 </r>
       <r>   -5.3468    1.0000 </r>
       <r>   -0.1672    0.0000 </r>
       <r>   -0.1672    0.0000 </r>
       <r>    6.5601    0.0000 </r>
       <r>    6.5601    0.0000 </r>
      </set>
      <set comment="kpoint 236">
       <r>  -17.7363    1.0000 </r>
       <r>  -17.7363    1.0000 </r>
       <r>  -13.4898    1.0000 </r>
       <r>  -13.4898    1.0000 </r>
       <r>  -11.5107    1.0000 </r>
       <r>  -11.5107    1.0000 </r>
       <r>   -5.3418    1.0000 </r>
       <r>   -5.3418    1.0000 </r>
       <r>   -0.1849    0.0000 </r>
       <r>   -0.1849    0.0000 </r>
       <r>    6.5728    0.0000 </r>
       <r>    6.5728    0.0000 </r>
      </set>
      <set comment="kpoint 237">
       <r>  -17.7100    1.0000 </r>
       <r>  -17.7100    1.0000 </r>
       <r>  -13.6640    1.0000 </r>
       <r>  -13.6640    1.0000 </r>
       <r>  -11.3295    1.0000 </r>
       <r>  -11.3295    1.0000 </r>
       <r>   -5.3271    1.0000 </r>
       <r>   -5.3271    1.0000 </r>
       <r>   -0.2365    0.0000 </r>
       <r>   -0.2365    0.0000 </r>
       <r>    6.6104    0.0000 </r>
       <r>    6.6104    0.0000 </r>
      </set>
      <set comment="kpoint 238">
       <r>  -17.6664    1.0000 </r>
       <r>  -17.6664    1.0000 </r>
       <r>  -13.9009    1.0000 </r>
       <r>  -13.9009    1.0000 </r>
       <r>  -11.0824    1.0000 </r>
       <r>  -11.0824    1.0000 </r>
       <r>   -5.3034    1.0000 </r>
       <r>   -5.3034    1.0000 </r>
       <r>   -0.3177    0.0000 </r>
       <r>   -0.3177    0.0000 </r>
       <r>    6.6673    0.0000 </r>
       <r>    6.6673    0.0000 </r>
      </set>
      <set comment="kpoint 239">
       <r>  -17.6059    1.0000 </r>
       <r>  -17.6059    1.0000 </r>
       <r>  -14.1674    1.0000 </r>
       <r>  -14.1674    1.0000 </r>
       <r>  -10.8050    1.0000 </r>
       <r>  -10.8050    1.0000 </r>
       <r>   -5.2717    1.0000 </r>
       <r>   -5.2717    1.0000 </r>
       <r>   -0.4222    0.0000 </r>
       <r>   -0.4222    0.0000 </r>
       <r>    6.4203    0.0000 </r>
       <r>    6.4203    0.0000 </r>
      </set>
      <set comment="kpoint 240">
       <r>  -17.5290    1.0000 </r>
       <r>  -17.5290    1.0000 </r>
       <r>  -14.4442    1.0000 </r>
       <r>  -14.4442    1.0000 </r>
       <r>  -10.5197    1.0000 </r>
       <r>  -10.5197    1.0000 </r>
       <r>   -5.2337    1.0000 </r>
       <r>   -5.2337    1.0000 </r>
       <r>   -0.5422    0.0000 </r>
       <r>   -0.5422    0.0000 </r>
       <r>    5.8961    0.0000 </r>
       <r>    5.8961    0.0000 </r>
      </set>
      <set comment="kpoint 241">
       <r>  -17.4369    1.0000 </r>
       <r>  -17.4369    1.0000 </r>
       <r>  -14.7200    1.0000 </r>
       <r>  -14.7200    1.0000 </r>
       <r>  -10.2419    1.0000 </r>
       <r>  -10.2419    1.0000 </r>
       <r>   -5.1914    1.0000 </r>
       <r>   -5.1914    1.0000 </r>
       <r>   -0.6694    0.0000 </r>
       <r>   -0.6694    0.0000 </r>
       <r>    5.4090    0.0000 </r>
       <r>    5.4090    0.0000 </r>
      </set>
      <set comment="kpoint 242">
       <r>  -17.3311    1.0000 </r>
       <r>  -17.3311    1.0000 </r>
       <r>  -14.9872    1.0000 </r>
       <r>  -14.9872    1.0000 </r>
       <r>   -9.9833    1.0000 </r>
       <r>   -9.9833    1.0000 </r>
       <r>   -5.1476    1.0000 </r>
       <r>   -5.1476    1.0000 </r>
       <r>   -0.7953    0.0000 </r>
       <r>   -0.7953    0.0000 </r>
       <r>    4.9736    0.0000 </r>
       <r>    4.9736    0.0000 </r>
      </set>
      <set comment="kpoint 243">
       <r>  -17.2144    1.0000 </r>
       <r>  -17.2144    1.0000 </r>
       <r>  -15.2393    1.0000 </r>
       <r>  -15.2393    1.0000 </r>
       <r>   -9.7544    1.0000 </r>
       <r>   -9.7544    1.0000 </r>
       <r>   -5.1051    1.0000 </r>
       <r>   -5.1051    1.0000 </r>
       <r>   -0.9119    0.0000 </r>
       <r>   -0.9119    0.0000 </r>
       <r>    4.6000    0.0000 </r>
       <r>    4.6000    0.0000 </r>
      </set>
      <set comment="kpoint 244">
       <r>  -17.0920    1.0000 </r>
       <r>  -17.0920    1.0000 </r>
       <r>  -15.4688    1.0000 </r>
       <r>  -15.4688    1.0000 </r>
       <r>   -9.5645    1.0000 </r>
       <r>   -9.5645    1.0000 </r>
       <r>   -5.0672    1.0000 </r>
       <r>   -5.0672    1.0000 </r>
       <r>   -1.0116    0.0000 </r>
       <r>   -1.0116    0.0000 </r>
       <r>    4.2974    0.0000 </r>
       <r>    4.2974    0.0000 </r>
      </set>
      <set comment="kpoint 245">
       <r>  -16.9743    1.0000 </r>
       <r>  -16.9743    1.0000 </r>
       <r>  -15.6640    1.0000 </r>
       <r>  -15.6640    1.0000 </r>
       <r>   -9.4220    1.0000 </r>
       <r>   -9.4220    1.0000 </r>
       <r>   -5.0372    1.0000 </r>
       <r>   -5.0372    1.0000 </r>
       <r>   -1.0880    0.0000 </r>
       <r>   -1.0880    0.0000 </r>
       <r>    4.0743    0.0000 </r>
       <r>    4.0743    0.0000 </r>
      </set>
      <set comment="kpoint 246">
       <r>  -16.8813    1.0000 </r>
       <r>  -16.8813    1.0000 </r>
       <r>  -15.8039    1.0000 </r>
       <r>  -15.8039    1.0000 </r>
       <r>   -9.3335    1.0000 </r>
       <r>   -9.3335    1.0000 </r>
       <r>   -5.0179    1.0000 </r>
       <r>   -5.0179    1.0000 </r>
       <r>   -1.1360    0.0000 </r>
       <r>   -1.1360    0.0000 </r>
       <r>    3.9374    0.0000 </r>
       <r>    3.9374    0.0000 </r>
      </set>
      <set comment="kpoint 247">
       <r>  -16.8441    1.0000 </r>
       <r>  -16.8441    1.0000 </r>
       <r>  -15.8568    1.0000 </r>
       <r>  -15.8568    1.0000 </r>
       <r>   -9.3035    1.0000 </r>
       <r>   -9.3035    1.0000 </r>
       <r>   -5.0113    1.0000 </r>
       <r>   -5.0113    1.0000 </r>
       <r>   -1.1524    0.0000 </r>
       <r>   -1.1524    0.0000 </r>
       <r>    3.8912    0.0000 </r>
       <r>    3.8912    0.0000 </r>
      </set>
     </set>
    </set>
   </array>
  </eigenvalues>
  <separator name="orbital magnetization" >
   <v name="MAGDIPOLOUT">      0.00000000      0.00000000      0.00000000</v>
  </separator>
 </calculation>
 <structure name="finalpos" >
  <crystal>
   <varray name="basis" >
    <v>       4.38073802       0.00000000       0.00000000 </v>
    <v>       0.00000000       2.45711600       0.00000000 </v>
    <v>       0.00000000       0.00000000      19.58735272 </v>
   </varray>
   <i name="volume">    210.83790140 </i>
   <varray name="rec_basis" >
    <v>       0.22827204       0.00000000       0.00000000 </v>
    <v>       0.00000000       0.40698119       0.00000000 </v>
    <v>       0.00000000       0.00000000       0.05105335 </v>
   </varray>
  </crystal>
  <varray name="positions" >
   <v>       0.99945793      -0.00000000       0.00000000 </v>
   <v>       0.16720874       0.50000000      -0.00000000 </v>
   <v>       0.49945793       0.50000000       0.00000000 </v>
   <v>       0.66720874       0.00000000      -0.00000000 </v>
  </varray>
 </structure>
</modeling>
