gr                                      
           1
     4.380738    0.000000    0.000000
     0.000000    2.457116    0.000000
     0.000000    0.000000   19.587353
   C 
   4
Direct configuration=     1
   0.99945869  0.00000000  0.00000000
   0.16720798  0.50000000  0.00000000
   0.49945869  0.50000000  0.00000000
   0.66720798  0.00000000  0.00000000
Direct configuration=     2
   0.99945511  0.00000000 -0.00000000
   0.16721155  0.50000000  0.00000000
   0.49945511  0.50000000 -0.00000000
   0.66721155 -0.00000000  0.00000000
Direct configuration=     3
   0.99945793  0.00000000 -0.00000000
   0.16720874  0.50000000  0.00000000
   0.49945793  0.50000000 -0.00000000
   0.66720874 -0.00000000  0.00000000
Direct configuration=     4
   0.99945791 -0.00000000 -0.00000000
   0.16720876  0.50000000  0.00000000
   0.49945791  0.50000000 -0.00000000
   0.66720876 -0.00000000  0.00000000
Direct configuration=     5
   0.99945792 -0.00000000 -0.00000000
   0.16720875  0.50000000  0.00000000
   0.49945792  0.50000000 -0.00000000
   0.66720875 -0.00000000  0.00000000
Direct configuration=     6
   0.99945792 -0.00000000 -0.00000000
   0.16720874  0.50000000  0.00000000
   0.49945792  0.50000000 -0.00000000
   0.66720874 -0.00000000  0.00000000
Direct configuration=     7
   0.99945778  0.00000000 -0.00000000
   0.16720888  0.50000000  0.00000000
   0.49945778  0.50000000 -0.00000000
   0.66720888 -0.00000000  0.00000000
Direct configuration=     8
   0.99945793 -0.00000000 -0.00000000
   0.16720874  0.50000000  0.00000000
   0.49945793  0.50000000 -0.00000000
   0.66720874  0.00000000  0.00000000
Direct configuration=     9
   0.99945793 -0.00000000  0.00000000
   0.16720873  0.50000000 -0.00000000
   0.49945793  0.50000000  0.00000000
   0.66720873  0.00000000 -0.00000000
Direct configuration=    10
   0.99945793 -0.00000000  0.00000000
   0.16720874  0.50000000 -0.00000000
   0.49945793  0.50000000  0.00000000
   0.66720874  0.00000000 -0.00000000
