    4    4  400    1
  0.5270948E+02  0.4258580E-09  0.2516648E-09  0.1967259E-08  0.5000000E-15
  1.000000000000000E-004
  CAR 
 gr                                      
     16    247     12
 
  0.0000000E+00  0.0000000E+00  0.0000000E+00  0.1157407E-02
    1      -22.115764
    2      -16.767081
    3      -15.885183
    4      -10.252468
    5       -9.415875
    6       -5.955124
    7       -5.747372
    8       -4.945588
    9       -1.126986
   10        0.540463
   11        1.339201
   12        1.730430
 
  0.4166667E-01  0.0000000E+00  0.0000000E+00  0.2314815E-02
    1      -22.105414
    2      -16.956410
    3      -15.680787
    4      -10.240170
    5       -9.405506
    6       -5.978623
    7       -5.788076
    8       -5.014973
    9       -1.042553
   10        0.554490
   11        1.353378
   12        1.744784
 
  0.8333333E-01  0.0000000E+00  0.0000000E+00  0.2314815E-02
    1      -22.074370
    2      -17.317095
    3      -15.274994
    4      -10.203294
    5       -9.374452
    6       -6.047774
    7       -5.908673
    8       -5.206436
    9       -0.806121
   10        0.596568
   11        1.395903
   12        1.787847
 
  0.1250000E+00  0.0000000E+00  0.0000000E+00  0.2314815E-02
    1      -22.022650
    2      -17.706899
    3      -14.810317
    4      -10.141897
    5       -9.322861
    6       -6.158778
    7       -6.104855
    8       -5.483649
    9       -0.454549
   10        0.666696
   11        1.466765
   12        1.859619
 
  0.1666667E+00  0.0000000E+00  0.0000000E+00  0.2314815E-02
    1      -21.950290
    2      -18.094605
    3      -14.318445
    4      -10.056077
    5       -9.250993
    6       -6.370113
    7       -6.306009
    8       -5.811789
    9       -0.023550
   10        0.764864
   11        1.565946
   12        1.960098
 
  0.2083333E+00  0.0000000E+00  0.0000000E+00  0.2314815E-02
    1      -21.857339
    2      -18.471333
    3      -13.808938
    4       -9.945973
    5       -9.159220
    6       -6.696552
    7       -6.482799
    8       -6.165775
    9        0.460534
   10        0.891061
   11        1.693413
   12        2.089285
 
  0.2500000E+00  0.0000000E+00  0.0000000E+00  0.2314815E-02
    1      -21.743860
    2      -18.833557
    3      -13.286220
    4       -9.811773
    5       -9.048040
    6       -7.075664
    7       -6.682176
    8       -6.529313
    9        0.979766
   10        1.045263
   11        1.849123
   12        2.247175
 
  0.2916667E+00  0.0000000E+00  0.0000000E+00  0.2314815E-02
    1      -21.609936
    2      -19.179505
    3      -12.753206
    4       -9.653721
    5       -8.918097
    6       -7.498960
    7       -6.897416
    8       -6.892017
    9        1.227440
   10        1.521686
   11        2.033009
   12        2.433765
 
  0.3333333E+00  0.0000000E+00  0.0000000E+00  0.2314815E-02
    1      -21.455660
    2      -19.508125
    3      -12.212364
    4       -9.472123
    5       -8.770198
    6       -7.958400
    7       -7.247143
    8       -7.122381
    9        1.437547
   10        2.076945
   11        2.244971
   12        2.649045
 
  0.3750000E+00  0.0000000E+00  0.0000000E+00  0.2314815E-02
    1      -21.281149
    2      -19.818713
    3      -11.666125
    4       -9.267364
    5       -8.605345
    6       -8.446640
    7       -7.590174
    8       -7.351675
    9        1.675523
   10        2.484839
   11        2.637441
   12        2.893000
 
  0.4166667E+00  0.0000000E+00  0.0000000E+00  0.2314815E-02
    1      -21.086537
    2      -20.110754
    3      -11.117086
    4       -9.039922
    5       -8.957125
    6       -8.424770
    7       -7.917980
    8       -7.580670
    9        1.941282
   10        2.752275
   11        3.165600
   12        3.192462
 
  0.4583333E+00  0.0000000E+00  0.0000000E+00  0.2314815E-02
    1      -20.871984
    2      -20.383848
    3      -10.568135
    4       -9.484099
    5       -8.790396
    6       -8.229976
    7       -8.228320
    8       -7.805463
    9        2.234701
   10        2.903516
   11        3.046394
   12        3.466776
 
  0.5000000E+00  0.0000000E+00  0.0000000E+00  0.1157407E-02
    1      -20.637680
    2      -20.637680
    3      -10.022550
    4      -10.022550
    5       -8.519542
    6       -8.519542
    7       -8.022798
    8       -8.022798
    9        2.555575
   10        2.555575
   11        3.363315
   12        3.363315
 
  0.0000000E+00  0.2777778E-01  0.0000000E+00  0.2314815E-02
    1      -22.102624
    2      -16.755753
    3      -15.874556
    4      -10.236854
    5       -9.474722
    6       -6.009302
    7       -5.779197
    8       -4.929666
    9       -1.132719
   10        0.558244
   11        1.357235
   12        1.748687
 
  0.4166667E-01  0.2777778E-01  0.0000000E+00  0.4629630E-02
    1      -22.092276
    2      -16.944964
    3      -15.670339
    4      -10.224561
    5       -9.464326
    6       -6.036118
    7       -5.815861
    8       -4.999221
    9       -1.048244
   10        0.572271
   11        1.371410
   12        1.763042
 
  0.8333333E-01  0.2777778E-01  0.0000000E+00  0.4629630E-02
    1      -22.061235
    2      -17.305435
    3      -15.264940
    4      -10.187698
    5       -9.433187
    6       -6.117016
    7       -5.922679
    8       -5.191068
    9       -0.811818
   10        0.614354
   11        1.413932
   12        1.806106
 
  0.1250000E+00  0.2777778E-01  0.0000000E+00  0.4629630E-02
    1      -22.009523
    2      -17.695029
    3      -14.800781
    4      -10.126323
    5       -9.381449
    6       -6.256537
    7       -6.087341
    8       -5.468661
    9       -0.460512
   10        0.684488
   11        1.484790
   12        1.877879
 
  0.1666667E+00  0.2777778E-01  0.0000000E+00  0.4629630E-02
    1      -21.937173
    2      -18.082549
    3      -14.309543
    4      -10.040534
    5       -9.309363
    6       -6.469744
    7       -6.283080
    8       -5.797071
    9       -0.030154
   10        0.782665
   11        1.583963
   12        1.978360
 
  0.2083333E+00  0.2777778E-01  0.0000000E+00  0.4629630E-02
    1      -21.844236
    2      -18.459115
    3      -13.800805
    4       -9.930470
    5       -9.217286
    6       -6.764132
    7       -6.488230
    8       -6.151205
    9        0.452906
   10        0.908873
   11        1.711421
   12        2.107549
 
  0.2500000E+00  0.2777778E-01  0.0000000E+00  0.4629630E-02
    1      -21.730775
    2      -18.821198
    3      -13.279017
    4       -9.796320
    5       -9.105701
    6       -7.124351
    7       -6.702953
    8       -6.514794
    9        0.970763
   10        1.063087
   11        1.867119
   12        2.265442
 
  0.2916667E+00  0.2777778E-01  0.0000000E+00  0.4629630E-02
    1      -21.596872
    2      -19.167024
    3      -12.747128
    4       -9.638326
    5       -8.975225
    6       -7.534854
    7       -6.927761
    8       -6.877482
    9        1.245278
   10        1.511002
   11        2.050994
   12        2.452036
 
  0.3333333E+00  0.2777778E-01  0.0000000E+00  0.4629630E-02
    1      -21.442622
    2      -19.495540
    3      -12.207652
    4       -9.456796
    5       -8.826637
    6       -7.984772
    7       -7.232549
    8       -7.159418
    9        1.455400
   10        2.064341
   11        2.262946
   12        2.667321
 
  0.3750000E+00  0.2777778E-01  0.0000000E+00  0.4629630E-02
    1      -21.268142
    2      -19.806037
    3      -11.663078
    4       -9.252113
    5       -8.660899
    6       -8.465600
    7       -7.575497
    8       -7.393692
    9        1.693393
   10        2.502808
   11        2.622826
   12        2.911283
 
  0.4166667E+00  0.2777778E-01  0.0000000E+00  0.4629630E-02
    1      -21.073566
    2      -20.098000
    3      -11.116074
    4       -9.024756
    5       -8.970201
    6       -8.479192
    7       -7.903206
    8       -7.626507
    9        1.959175
   10        2.770250
   11        3.176455
   12        3.183896
 
  0.4583333E+00  0.2777778E-01  0.0000000E+00  0.4629630E-02
    1      -20.859055
    2      -20.371027
    3      -10.569619
    4       -9.492459
    5       -8.775321
    6       -8.282956
    7       -8.213445
    8       -7.854276
    9        2.252625
   10        2.921602
   11        3.064404
   12        3.485097
 
  0.5000000E+00  0.2777778E-01  0.0000000E+00  0.2314815E-02
    1      -20.624801
    2      -20.624801
    3      -10.027110
    4      -10.027110
    5       -8.504564
    6       -8.504564
    7       -8.073944
    8       -8.073944
    9        2.573552
   10        2.573552
   11        3.381350
   12        3.381350
 
  0.0000000E+00  0.5555556E-01  0.0000000E+00  0.2314815E-02
    1      -22.063217
    2      -16.721776
    3      -15.842875
    4      -10.190045
    5       -9.646448
    6       -6.167603
    7       -5.873697
    8       -4.881916
    9       -1.150714
   10        0.611594
   11        1.411330
   12        1.803462
 
  0.4166667E-01  0.5555556E-01  0.0000000E+00  0.4629630E-02
    1      -22.052872
    2      -16.910646
    3      -15.639182
    4      -10.177764
    5       -9.635963
    6       -6.200945
    7       -5.901737
    8       -4.952001
    9       -1.066104
   10        0.625624
   11        1.425502
   12        1.817818
 
  0.8333333E-01  0.5555556E-01  0.0000000E+00  0.4629630E-02
    1      -22.021844
    2      -17.270485
    3      -15.234972
    4      -10.140942
    5       -9.604548
    6       -6.299188
    7       -5.985273
    8       -5.145029
    9       -0.829677
   10        0.667716
   11        1.468014
   12        1.860883
 
  0.1250000E+00  0.5555556E-01  0.0000000E+00  0.4629630E-02
    1      -21.970153
    2      -17.659453
    3      -14.772396
    4      -10.079635
    5       -9.552334
    6       -6.458407
    7       -6.121425
    8       -5.423791
    9       -0.479177
   10        0.737864
   11        1.538854
   12        1.932659
 
  0.1666667E+00  0.5555556E-01  0.0000000E+00  0.4629630E-02
    1      -21.897836
    2      -18.046411
    3      -14.283113
    4       -9.993941
    5       -9.479540
    6       -6.675176
    7       -6.303140
    8       -5.753023
    9       -0.050765
   10        0.836064
   11        1.638004
   12        2.033145
 
  0.2083333E+00  0.5555556E-01  0.0000000E+00  0.4629630E-02
    1      -21.804941
    2      -18.422485
    3      -13.776753
    4       -9.884000
    5       -9.386480
    6       -6.947735
    7       -6.519164
    8       -6.107602
    9        0.429181
   10        0.962298
   11        1.765432
   12        2.162340
 
  0.2500000E+00  0.5555556E-01  0.0000000E+00  0.4629630E-02
    1      -21.691532
    2      -18.784143
    3      -13.257853
    4       -9.750000
    5       -9.273576
    6       -7.274469
    7       -6.756796
    8       -6.471341
    9        0.942851
   10        1.116545
   11        1.921096
   12        2.320241
 
  0.2916667E+00  0.5555556E-01  0.0000000E+00  0.4629630E-02
    1      -21.557694
    2      -19.129603
    3      -12.729479
    4       -9.592184
    5       -9.141366
    6       -7.651503
    7       -7.005405
    8       -6.833976
    9        1.298772
   10        1.477971
   11        2.104934
   12        2.506845
 
  0.3333333E+00  0.5555556E-01  0.0000000E+00  0.4629630E-02
    1      -21.403522
    2      -19.457802
    3      -12.194294
    4       -9.410859
    5       -8.990521
    6       -8.072319
    7       -7.257642
    8       -7.188860
    9        1.508934
   10        2.025449
   11        2.316851
   12        2.722143
 
  0.3750000E+00  0.5555556E-01  0.0000000E+00  0.4629630E-02
    1      -21.229134
    2      -19.768026
    3      -11.654981
    4       -9.206408
    5       -8.821866
    6       -8.529177
    7       -7.531549
    8       -7.508551
    9        1.746972
   10        2.556691
   11        2.577721
   12        2.966125
 
  0.4166667E+00  0.5555556E-01  0.0000000E+00  0.4629630E-02
    1      -21.034666
    2      -20.059755
    3      -11.114455
    4       -9.014442
    5       -8.979308
    6       -8.636401
    7       -7.858960
    8       -7.754475
    9        2.012808
   10        2.824151
   11        3.126430
   12        3.238768
 
  0.4583333E+00  0.5555556E-01  0.0000000E+00  0.4629630E-02
    1      -20.820283
    2      -20.332580
    3      -10.576014
    4       -9.521209
    5       -8.730154
    6       -8.435336
    7       -8.168887
    8       -7.992479
    9        2.306333
   10        2.975680
   11        3.118413
   12        3.540041
 
  0.5000000E+00  0.5555556E-01  0.0000000E+00  0.2314815E-02
    1      -20.586179
    2      -20.586179
    3      -10.043457
    4      -10.043457
    5       -8.459696
    6       -8.459696
    7       -8.220118
    8       -8.220118
    9        2.627383
   10        2.627383
   11        3.435442
   12        3.435442
 
  0.0000000E+00  0.8333333E-01  0.0000000E+00  0.2314815E-02
    1      -21.997577
    2      -16.665160
    3      -15.790767
    4      -10.112137
    5       -9.917899
    6       -6.418587
    7       -6.028047
    8       -4.802399
    9       -1.183340
   10        0.700535
   11        1.501464
   12        1.894759
 
  0.4166667E-01  0.8333333E-01  0.0000000E+00  0.4629630E-02
    1      -21.987239
    2      -16.853523
    3      -15.587908
    4      -10.099880
    5       -9.907241
    6       -6.458002
    7       -6.046706
    8       -4.873422
    9       -1.098466
   10        0.714568
   11        1.515630
   12        1.909115
 
  0.8333333E-01  0.8333333E-01  0.0000000E+00  0.4629630E-02
    1      -21.956233
    2      -17.212341
    3      -15.185715
    4      -10.063127
    5       -9.875300
    6       -6.569961
    7       -6.107139
    8       -5.068531
    9       -0.861982
   10        0.756666
   11        1.558123
   12        1.952182
 
  0.1250000E+00  0.8333333E-01  0.0000000E+00  0.4629630E-02
    1      -21.904580
    2      -17.600265
    3      -14.725890
    4      -10.001936
    5       -9.822169
    6       -6.741799
    7       -6.216616
    8       -5.349326
    9       -0.512826
   10        0.826829
   11        1.628932
   12        2.023960
 
  0.1666667E+00  0.8333333E-01  0.0000000E+00  0.4629630E-02
    1      -21.832316
    2      -17.986279
    3      -14.240050
    4       -9.916405
    5       -9.748010
    6       -6.962481
    7       -6.377553
    8       -5.679969
    9       -0.087735
   10        0.925051
   11        1.728038
   12        2.124451
 
  0.2083333E+00  0.8333333E-01  0.0000000E+00  0.4629630E-02
    1      -21.739490
    2      -18.361525
    3      -13.737923
    4       -9.806674
    5       -9.653045
    6       -7.224963
    7       -6.585793
    8       -6.035299
    9        0.386880
   10        1.051316
   11        1.855411
   12        2.253654
 
  0.2500000E+00  0.8333333E-01  0.0000000E+00  0.4629630E-02
    1      -21.626171
    2      -18.722465
    3      -13.224215
    4       -9.672931
    5       -9.537570
    6       -7.526019
    7       -6.831680
    8       -6.399276
    9        0.893390
   10        1.205602
   11        2.011010
   12        2.411566
 
  0.2916667E+00  0.8333333E-01  0.0000000E+00  0.4629630E-02
    1      -21.492441
    2      -19.067305
    3      -12.702226
    4       -9.515420
    5       -9.401948
    6       -7.865208
    7       -7.102070
    8       -6.761799
    9        1.387873
   10        1.419758
   11        2.194774
   12        2.598183
 
  0.3333333E+00  0.8333333E-01  0.0000000E+00  0.4629630E-02
    1      -21.338399
    2      -19.394970
    3      -12.174932
    4       -9.334448
    5       -9.246616
    6       -8.242896
    7       -7.383184
    8       -7.116353
    9        1.598083
   10        1.957185
   11        2.406619
   12        2.813498
 
  0.3750000E+00  0.8333333E-01  0.0000000E+00  0.4629630E-02
    1      -21.164165
    2      -19.704736
    3      -11.645423
    4       -9.130397
    5       -9.072086
    6       -8.657939
    7       -7.663579
    8       -7.458585
    9        1.836175
   10        2.498607
   11        2.646408
   12        3.057503
 
  0.4166667E+00  0.8333333E-01  0.0000000E+00  0.4629630E-02
    1      -20.969881
    2      -19.996068
    3      -11.117149
    4       -9.106567
    5       -8.903740
    6       -8.878944
    7       -7.935635
    8       -7.785475
    9        2.102071
   10        2.913882
   11        3.037330
   12        3.330181
 
  0.4583333E+00  0.8333333E-01  0.0000000E+00  0.4629630E-02
    1      -20.755713
    2      -20.268554
    3      -10.594093
    4       -9.583031
    5       -8.667855
    6       -8.655070
    7       -8.195064
    8       -8.094858
    9        2.395675
   10        3.065379
   11        3.208340
   12        3.557408
 
  0.5000000E+00  0.8333333E-01  0.0000000E+00  0.2314815E-02
    1      -20.521859
    2      -20.521859
    3      -10.080913
    4      -10.080913
    5       -8.439582
    6       -8.439582
    7       -8.385128
    8       -8.385128
    9        2.716848
   10        2.716848
   11        3.525532
   12        3.525532
 
  0.0000000E+00  0.1111111E+00  0.0000000E+00  0.2314815E-02
    1      -21.905768
    2      -16.585927
    3      -15.719426
    4      -10.270657
    5      -10.003297
    6       -6.746545
    7       -6.237839
    8       -4.691213
    9       -1.234463
   10        0.825095
   11        1.627601
   12        2.022583
 
  0.4166667E-01  0.1111111E+00  0.0000000E+00  0.4629630E-02
    1      -21.895440
    2      -16.773717
    3      -15.517648
    4      -10.259705
    5       -9.991073
    6       -6.790922
    7       -6.247277
    8       -4.763682
    9       -1.149121
   10        0.839127
   11        1.641756
   12        2.036938
 
  0.8333333E-01  0.1111111E+00  0.0000000E+00  0.4629630E-02
    1      -21.864465
    2      -17.131178
    3      -15.118368
    4      -10.226860
    5       -9.954422
    6       -6.913702
    7       -6.284720
    8       -4.961961
    9       -0.912404
   10        0.881224
   11        1.684219
   12        2.080005
 
  0.1250000E+00  0.1111111E+00  0.0000000E+00  0.4629630E-02
    1      -21.812865
    2      -17.517641
    3      -14.662684
    4      -10.172152
    5       -9.893400
    6       -7.095526
    7       -6.365780
    8       -5.245796
    9       -0.565104
   10        0.951388
   11        1.754977
   12        2.151785
 
  0.1666667E+00  0.1111111E+00  0.0000000E+00  0.4629630E-02
    1      -21.740676
    2      -17.902313
    3      -14.182132
    4      -10.095625
    5       -9.808107
    6       -7.320804
    7       -6.499678
    8       -5.578503
    9       -0.144796
   10        1.049616
   11        1.854011
   12        2.252278
 
  0.2083333E+00  0.1111111E+00  0.0000000E+00  0.4629630E-02
    1      -21.647950
    2      -18.276377
    3      -13.686615
    4       -9.997327
    5       -9.698682
    6       -7.579431
    7       -6.687633
    8       -5.934894
    9        0.322106
   10        1.175899
   11        1.981291
   12        2.381487
 
  0.2500000E+00  0.1111111E+00  0.0000000E+00  0.4629630E-02
    1      -21.534756
    2      -18.636292
    3      -13.181151
    4       -9.877300
    5       -9.565316
    6       -7.865579
    7       -6.924527
    8       -6.299173
    9        0.818267
   10        1.330213
   11        2.136775
   12        2.539407
 
  0.2916667E+00  0.1111111E+00  0.0000000E+00  0.4629630E-02
    1      -21.401179
    2      -18.980247
    3      -12.669486
    4       -9.735550
    5       -9.408253
    6       -8.176898
    7       -7.200465
    8       -6.661489
    9        1.332011
   10        1.512519
   11        2.320408
   12        2.726037
 
  0.3333333E+00  0.1111111E+00  0.0000000E+00  0.4629630E-02
    1      -21.247321
    2      -19.307150
    3      -12.155201
    4       -9.572022
    5       -9.227798
    6       -8.513986
    7       -7.502176
    8       -7.015522
    9        1.722770
   10        1.854929
   11        2.532112
   12        2.941369
 
  0.3750000E+00  0.1111111E+00  0.0000000E+00  0.4629630E-02
    1      -21.073305
    2      -19.616260
    3      -11.642194
    4       -9.386561
    5       -9.024333
    6       -8.879398
    7       -7.814765
    8       -7.357054
    9        1.960904
   10        2.380480
   11        2.771777
   12        3.185396
 
  0.4166667E+00  0.1111111E+00  0.0000000E+00  0.4629630E-02
    1      -20.879279
    2      -19.907029
    3      -11.134957
    4       -9.275735
    5       -9.178878
    6       -8.798328
    7       -8.124184
    8       -7.683158
    9        2.226844
   10        2.903108
   11        3.039216
   12        3.458105
 
  0.4583333E+00  0.1111111E+00  0.0000000E+00  0.4629630E-02
    1      -20.665416
    2      -20.179030
    3      -10.638736
    4       -9.703382
    5       -8.948586
    6       -8.550372
    7       -8.419776
    8       -7.991727
    9        2.520496
   10        3.190402
   11        3.333952
   12        3.416824
 
  0.5000000E+00  0.1111111E+00  0.0000000E+00  0.2314815E-02
    1      -20.431920
    2      -20.431920
    3      -10.159481
    4      -10.159481
    5       -8.695400
    6       -8.695400
    7       -8.281196
    8       -8.281196
    9        2.841739
   10        2.841739
   11        3.651303
   12        3.651303
 
  0.0000000E+00  0.1388889E+00  0.0000000E+00  0.2314815E-02
    1      -21.787882
    2      -16.484107
    3      -15.630883
    4      -10.684202
    5       -9.863762
    6       -7.134635
    7       -6.497467
    8       -4.548500
    9       -1.309257
   10        0.985292
   11        1.789683
   12        2.186939
 
  0.4166667E-01  0.1388889E+00  0.0000000E+00  0.4629630E-02
    1      -21.777567
    2      -16.671431
    3      -15.430340
    4      -10.672758
    5       -9.851585
    6       -7.183182
    7       -6.497815
    8       -4.623098
    9       -1.223096
   10        0.999318
   11        1.803822
   12        2.201293
 
  0.8333333E-01  0.1388889E+00  0.0000000E+00  0.4629630E-02
    1      -21.746633
    2      -17.027281
    3      -15.035023
    4      -10.638397
    5       -9.815071
    6       -7.315151
    7       -6.511907
    8       -4.825956
    9       -0.985726
   10        1.041398
   11        1.846237
   12        2.244357
 
  0.1250000E+00  0.1388889E+00  0.0000000E+00  0.4629630E-02
    1      -21.695100
    2      -17.411861
    3      -14.585307
    4      -10.581021
    5       -9.754279
    6       -7.505893
    7       -6.562307
    8       -5.114060
    9       -0.640688
   10        1.111540
   11        1.916914
   12        2.316133
 
  0.1666667E+00  0.1388889E+00  0.0000000E+00  0.4629630E-02
    1      -21.623010
    2      -17.794766
    3      -14.112601
    4      -10.500448
    5       -9.669309
    6       -7.736514
    7       -6.663924
    8       -5.449569
    9       -0.226683
   10        1.209749
   11        2.015831
   12        2.416625
 
  0.2083333E+00  0.1388889E+00  0.0000000E+00  0.4629630E-02
    1      -21.530413
    2      -18.167265
    3      -13.627133
    4      -10.396372
    5       -9.560303
    6       -7.994981
    7       -6.822500
    8       -5.807331
    9        0.229970
   10        1.336020
   11        2.142956
   12        2.545833
 
  0.2500000E+00  0.1388889E+00  0.0000000E+00  0.4629630E-02
    1      -21.417381
    2      -18.525819
    3      -13.134517
    4      -10.268310
    5       -9.427451
    6       -8.273835
    7       -7.036896
    8       -6.171927
    9        0.712417
   10        1.490332
   11        2.298243
   12        2.703759
 
  0.2916667E+00  0.1388889E+00  0.0000000E+00  0.4629630E-02
    1      -21.284002
    2      -18.868602
    3      -12.639361
    4      -10.115527
    5       -9.270998
    6       -8.568840
    7       -7.300863
    8       -6.533872
    9        1.209515
   10        1.672650
   11        2.481633
   12        2.890397
 
  0.3333333E+00  0.1388889E+00  0.0000000E+00  0.4629630E-02
    1      -21.130384
    2      -19.194497
    3      -12.146420
    4       -9.936945
    5       -9.091251
    6       -8.878479
    7       -7.604326
    8       -6.887120
    9        1.713381
   10        1.882918
   11        2.693052
   12        3.105743
 
  0.3750000E+00  0.1388889E+00  0.0000000E+00  0.4629630E-02
    1      -20.956654
    2      -19.502741
    3      -11.661093
    4       -9.731098
    5       -9.203826
    6       -8.888589
    7       -7.934356
    8       -7.227638
    9        2.121068
   10        2.218030
   11        2.932398
   12        3.349787
 
  0.4166667E+00  0.1388889E+00  0.0000000E+00  0.4629630E-02
    1      -20.762967
    2      -19.792767
    3      -11.189540
    4       -9.548299
    5       -9.496258
    6       -8.663483
    7       -8.276131
    8       -7.552623
    9        2.387020
   10        2.718618
   11        3.199545
   12        3.622520
 
  0.4583333E+00  0.1388889E+00  0.0000000E+00  0.4629630E-02
    1      -20.549503
    2      -20.064131
    3      -10.738292
    4       -9.916678
    5       -9.231026
    6       -8.614384
    7       -8.416512
    8       -7.860047
    9        2.680675
   10        3.211015
   11        3.350588
   12        3.494322
 
  0.5000000E+00  0.1388889E+00  0.0000000E+00  0.2314815E-02
    1      -20.316475
    2      -20.316475
    3      -10.313019
    4      -10.313019
    5       -8.935719
    6       -8.935719
    7       -8.148397
    8       -8.148397
    9        3.001916
   10        3.001916
   11        3.691464
   12        3.691464
 
  0.0000000E+00  0.1666667E+00  0.0000000E+00  0.2314815E-02
    1      -21.644038
    2      -16.359741
    3      -15.528558
    4      -11.137807
    5       -9.693853
    6       -7.567098
    7       -6.800552
    8       -4.374445
    9       -1.413831
   10        1.181129
   11        1.987631
   12        2.387831
 
  0.4166667E-01  0.1666667E+00  0.0000000E+00  0.4629630E-02
    1      -21.633741
    2      -16.546992
    3      -15.329266
    4      -11.125525
    5       -9.681735
    6       -7.619368
    7       -6.791883
    8       -4.452160
    9       -1.326215
   10        1.195143
   11        2.001746
   12        2.402183
 
  0.8333333E-01  0.1666667E+00  0.0000000E+00  0.4629630E-02
    1      -21.602857
    2      -16.901100
    3      -14.939316
    4      -11.088566
    5       -9.645402
    6       -7.759678
    7       -6.782277
    8       -4.661540
    9       -1.087294
   10        1.237189
   11        2.044084
   12        2.445241
 
  0.1250000E+00  0.1666667E+00  0.0000000E+00  0.4629630E-02
    1      -21.551410
    2      -17.283357
    3      -14.498284
    4      -11.026573
    5       -9.584912
    6       -7.958915
    7       -6.800271
    8       -4.955475
    9       -0.744663
   10        1.307281
   11        2.114628
   12        2.517009
 
  0.1666667E+00  0.1666667E+00  0.0000000E+00  0.4629630E-02
    1      -21.479439
    2      -17.664023
    3      -14.037439
    4      -10.938890
    5       -9.500366
    6       -8.195517
    7       -6.865704
    8       -5.294629
    9       -0.338442
   10        1.405432
   11        2.213350
   12        2.617490
 
  0.2083333E+00  0.1666667E+00  0.0000000E+00  0.4629630E-02
    1      -21.387002
    2      -18.034522
    3      -13.567670
    4      -10.824463
    5       -9.391909
    6       -8.456127
    7       -6.988305
    8       -5.654037
    9        0.105370
   10        1.531647
   11        2.340205
   12        2.746689
 
  0.2500000E+00  0.1666667E+00  0.0000000E+00  0.4629630E-02
    1      -21.274171
    2      -18.391336
    3      -13.095768
    4      -10.681711
    5       -9.259733
    6       -8.732374
    7       -7.170436
    8       -6.018870
    9        0.570708
   10        1.685915
   11        2.495132
   12        2.904610
 
  0.2916667E+00  0.1666667E+00  0.0000000E+00  0.4629630E-02
    1      -21.141040
    2      -18.732622
    3      -12.627996
    4      -10.508393
    5       -9.104086
    6       -9.018985
    7       -7.409033
    8       -6.380164
    9        1.047225
   10        1.868201
   11        2.678040
   12        3.091250
 
  0.3333333E+00  0.1666667E+00  0.0000000E+00  0.4629630E-02
    1      -20.987720
    2      -19.057234
    3      -12.171126
    4      -10.301615
    5       -9.312957
    6       -8.925275
    7       -7.696973
    8       -6.732240
    9        1.527776
   10        2.078448
   11        2.888798
   12        3.306603
 
  0.3750000E+00  0.1666667E+00  0.0000000E+00  0.4629630E-02
    1      -20.814348
    2      -19.364378
    3      -11.732406
    4      -10.058301
    5       -9.613323
    6       -8.723680
    7       -8.024161
    8       -7.071316
    9        2.007069
   10        2.316581
   11        3.127173
   12        3.550661
 
  0.4166667E+00  0.1666667E+00  0.0000000E+00  0.4629630E-02
    1      -20.621085
    2      -19.653463
    3      -11.318420
    4       -9.921204
    5       -9.776597
    6       -8.499770
    7       -8.378309
    8       -7.394745
    9        2.480910
   10        2.582505
   11        3.392540
   12        3.823411
 
  0.4583333E+00  0.1666667E+00  0.0000000E+00  0.4629630E-02
    1      -20.408122
    2      -19.924024
    3      -10.932922
    4      -10.239969
    5       -9.458218
    6       -8.745428
    7       -8.254117
    8       -7.700600
    9        2.876115
   10        2.945689
   11        3.545850
   12        3.676037
 
  0.5000000E+00  0.1666667E+00  0.0000000E+00  0.2314815E-02
    1      -20.175681
    2      -20.175681
    3      -10.575074
    4      -10.575074
    5       -9.110385
    6       -9.110385
    7       -7.987432
    8       -7.987432
    9        3.197282
   10        3.197282
   11        3.397269
   12        3.397269
 