       N       E                     dE             d eps       ncg     rms          rms(c)
DAV:   1     0.188567751920E+03    0.18857E+03   -0.10594E+04  5928   0.275E+03
DAV:   2    -0.886182322674E+01   -0.19743E+03   -0.17550E+03 10404   0.260E+02
DAV:   3    -0.381397273571E+02   -0.29278E+02   -0.28757E+02  7316   0.120E+02    0.713E+00
RMM:   4    -0.376108427680E+02    0.52888E+00   -0.96525E+00  5929   0.267E+01    0.414E+00
RMM:   5    -0.368914096216E+02    0.71943E+00   -0.26961E+00  5932   0.112E+01    0.704E-01
RMM:   6    -0.368933617443E+02   -0.19521E-02   -0.84055E-02  6386   0.203E+00    0.502E-01
RMM:   7    -0.368843379010E+02    0.90238E-02   -0.31771E-02  5944   0.155E+00    0.328E-01
RMM:   8    -0.368792918349E+02    0.50461E-02   -0.67854E-03  5930   0.546E-01    0.132E-01
RMM:   9    -0.368791400667E+02    0.15177E-03   -0.19506E-02  5928   0.826E-01    0.154E-01
RMM:  10    -0.368790520554E+02    0.88011E-04   -0.23681E-03  5929   0.350E-01    0.284E-02
RMM:  11    -0.368814007135E+02   -0.23487E-02   -0.67290E-04  5930   0.172E-01    0.437E-02
RMM:  12    -0.368818815281E+02   -0.48081E-03   -0.21468E-04  5943   0.968E-02    0.505E-03
RMM:  13    -0.368821260066E+02   -0.24448E-03   -0.48279E-05  6018   0.379E-02    0.363E-03
RMM:  14    -0.368822075572E+02   -0.81551E-04   -0.10198E-05  5962   0.163E-02    0.134E-03
RMM:  15    -0.368822182272E+02   -0.10670E-04   -0.16772E-06  5976   0.746E-03    0.173E-03
RMM:  16    -0.368822309370E+02   -0.12710E-04   -0.11916E-06  5928   0.703E-03    0.987E-04
RMM:  17    -0.368822366275E+02   -0.56905E-05   -0.78238E-08  6074   0.174E-03    0.722E-04
RMM:  18    -0.368822377072E+02   -0.10797E-05   -0.54264E-08  5928   0.177E-03    0.819E-05
RMM:  19    -0.368822384672E+02   -0.76002E-06   -0.10214E-08  5879   0.463E-04    0.154E-05
RMM:  20    -0.368822385181E+02   -0.50875E-07   -0.82490E-10  4471   0.140E-04    0.234E-05
RMM:  21    -0.368822385328E+02   -0.14709E-07   -0.21693E-10  4351   0.878E-05    0.629E-06
RMM:  22    -0.368822385328E+02    0.31264E-10   -0.13228E-11  3905   0.464E-05
   1 F= -.36882239E+02 E0= -.36882238E+02  d E =-.368822E+02
       N       E                     dE             d eps       ncg     rms          rms(c)
DAV:   1    -0.368822384437E+02    0.89057E-07   -0.76940E-06  6504   0.261E-02    0.533E-04
RMM:   2    -0.368822384511E+02   -0.73886E-08   -0.12966E-07  5963   0.315E-03    0.391E-04
RMM:   3    -0.368822384515E+02   -0.40393E-09   -0.20989E-08  5997   0.117E-03    0.999E-05
RMM:   4    -0.368822384502E+02    0.13720E-08   -0.13075E-09  5911   0.285E-04    0.284E-05
RMM:   5    -0.368822384507E+02   -0.54104E-09   -0.73083E-11  3883   0.766E-05    0.115E-05
RMM:   6    -0.368822384506E+02    0.10493E-09   -0.17414E-11  3569   0.479E-05    0.233E-06
RMM:   7    -0.368822384509E+02   -0.25875E-09   -0.84301E-12  3429   0.381E-05    0.692E-07
RMM:   8    -0.368822384509E+02   -0.30241E-10   -0.60446E-12  3127   0.326E-05
   2 F= -.36882238E+02 E0= -.36882238E+02  d E =0.818800E-07
       N       E                     dE             d eps       ncg     rms          rms(c)
DAV:   1    -0.368822385429E+02   -0.92042E-07   -0.49412E-06  6524   0.210E-02    0.431E-04
RMM:   2    -0.368822385456E+02   -0.26455E-08   -0.78897E-08  5952   0.251E-03    0.313E-04
RMM:   3    -0.368822385404E+02    0.51633E-08   -0.13066E-08  5979   0.926E-04    0.751E-05
RMM:   4    -0.368822385402E+02    0.14290E-09   -0.75713E-10  5585   0.221E-04    0.227E-05
RMM:   5    -0.368822385403E+02   -0.16598E-10   -0.37260E-11  3745   0.655E-05
   3 F= -.36882239E+02 E0= -.36882238E+02  d E =-.893672E-07
       N       E                     dE             d eps       ncg     rms          rms(c)
DAV:   1    -0.368822385396E+02    0.60970E-09    0.59840E-09  4592   0.893E-05    0.143E-06
RMM:   2    -0.368822385399E+02   -0.25818E-09    0.12061E-12  3085   0.302E-05    0.788E-07
RMM:   3    -0.368822385399E+02    0.10346E-10   -0.59767E-13  2846   0.301E-05    0.141E-07
RMM:   4    -0.368822385401E+02   -0.22328E-09   -0.88890E-13  2543   0.269E-05    0.106E-07
RMM:   5    -0.368822385402E+02   -0.64006E-10   -0.13893E-12  2310   0.242E-05
   4 F= -.36882239E+02 E0= -.36882238E+02  d E =0.911768E-10
       N       E                     dE             d eps       ncg     rms          rms(c)
DAV:   1    -0.368822385396E+02    0.45804E-09    0.60428E-09  4584   0.412E-05    0.431E-07
RMM:   2    -0.368822385400E+02   -0.34890E-09    0.10849E-13  1520   0.131E-05    0.265E-07
RMM:   3    -0.368822385399E+02    0.97884E-10    0.10066E-13  1459   0.129E-05    0.137E-08
RMM:   4    -0.368822385402E+02   -0.30082E-09   -0.42178E-13  1425   0.128E-05    0.889E-09
RMM:   5    -0.368822385403E+02   -0.12255E-09    0.21304E-13  1408   0.127E-05    0.884E-09
RMM:   6    -0.368822385402E+02    0.99590E-10    0.53455E-16  1363   0.126E-05
   5 F= -.36882239E+02 E0= -.36882238E+02  d E =-.527507E-10
       N       E                     dE             d eps       ncg     rms          rms(c)
DAV:   1    -0.368822385396E+02    0.75386E-09    0.60541E-09  4552   0.162E-05    0.351E-07
RMM:   2    -0.368822385403E+02   -0.76545E-09    0.44327E-14  1041   0.639E-06    0.217E-07
RMM:   3    -0.368822385403E+02    0.22283E-10   -0.12772E-13  1221   0.642E-06    0.457E-09
RMM:   4    -0.368822385399E+02    0.39427E-09    0.51523E-14   974   0.634E-06    0.333E-09
RMM:   5    -0.368822385403E+02   -0.35527E-09   -0.75660E-15   867   0.631E-06    0.169E-09
RMM:   6    -0.368822385401E+02    0.12665E-09   -0.96466E-14  1120   0.637E-06    0.160E-09
RMM:   7    -0.368822385402E+02   -0.53433E-11   -0.80101E-14   917   0.631E-06
   6 F= -.36882239E+02 E0= -.36882238E+02  d E =0.713953E-10
       N       E                     dE             d eps       ncg     rms          rms(c)
DAV:   1    -0.368822385395E+02    0.64767E-09    0.60517E-09  4864   0.236E-05    0.335E-07
RMM:   2    -0.368822385401E+02   -0.57230E-09   -0.16283E-14   457   0.645E-06    0.207E-07
RMM:   3    -0.368822385402E+02   -0.10425E-09    0.13158E-15   669   0.632E-06    0.441E-09
RMM:   4    -0.368822385402E+02   -0.17394E-10   -0.52962E-14   899   0.632E-06    0.161E-09
RMM:   5    -0.368822385400E+02    0.21964E-09   -0.45067E-14   759   0.633E-06    0.640E-10
RMM:   6    -0.368822385400E+02   -0.61505E-10    0.65791E-15   381   0.632E-06
   7 F= -.36882239E+02 E0= -.36882238E+02  d E =0.117211E-09
       N       E                     dE             d eps       ncg     rms          rms(c)
DAV:   1    -0.368822385396E+02    0.36721E-09    0.60457E-09  4260   0.351E-05    0.558E-07
RMM:   2    -0.368822385401E+02   -0.44929E-09    0.00000E+00   558   0.936E-06    0.345E-07
RMM:   3    -0.368822385402E+02   -0.18053E-09    0.00000E+00   432   0.914E-06    0.786E-09
RMM:   4    -0.368822385402E+02    0.27626E-10    0.00000E+00   371   0.914E-06    0.264E-09
RMM:   5    -0.368822385403E+02   -0.12164E-09    0.00000E+00   286   0.914E-06    0.710E-10
RMM:   6    -0.368822385404E+02   -0.30127E-10    0.00000E+00   215   0.914E-06
   8 F= -.36882239E+02 E0= -.36882238E+02  d E =-.325258E-09
