gr                                      
           1
     4.258580    0.000000    0.000000
     0.000000    2.516648    0.000000
     0.000000    0.000000   19.672585
   C 
   4
Direct configuration=     1
   0.00051919  0.00000000  0.00000000
   0.16614747  0.50000000  0.00000000
   0.50051919  0.50000000  0.00000000
   0.66614747  0.00000000  0.00000000
Direct configuration=     2
   0.00051301  0.00000000  0.00000000
   0.16615366  0.50000000 -0.00000000
   0.50051301  0.50000000  0.00000000
   0.66615366  0.00000000 -0.00000000
Direct configuration=     3
   0.00051796  0.00000000  0.00000000
   0.16614870  0.50000000 -0.00000000
   0.50051796  0.50000000  0.00000000
   0.66614870  0.00000000 -0.00000000
Direct configuration=     4
   0.00051795  0.00000000 -0.00000000
   0.16614872  0.50000000  0.00000000
   0.50051795  0.50000000 -0.00000000
   0.66614872  0.00000000  0.00000000
Direct configuration=     5
   0.00051796  0.00000000 -0.00000000
   0.16614871  0.50000000  0.00000000
   0.50051796  0.50000000 -0.00000000
   0.66614871  0.00000000  0.00000000
Direct configuration=     6
   0.00051796 -0.00000000 -0.00000000
   0.16614871  0.50000000  0.00000000
   0.50051796  0.50000000 -0.00000000
   0.66614871  0.00000000  0.00000000
Direct configuration=     7
   0.00051795 -0.00000000  0.00000000
   0.16614871  0.50000000 -0.00000000
   0.50051795  0.50000000  0.00000000
   0.66614871 -0.00000000 -0.00000000
Direct configuration=     8
   0.00051796  0.00000000 -0.00000000
   0.16614870  0.50000000  0.00000000
   0.50051796  0.50000000 -0.00000000
   0.66614870  0.00000000  0.00000000
