 running on    8 total cores
 distrk:  each k-point on    8 cores,    1 groups
 distr:  one band on    2 cores,    4 groups
 using from now: INCAR     
 vasp.5.3.5 31Mar14 (build Mar 02 2015 18:14:16) complex                        
  
 POSCAR found type information on POSCAR  C 
 POSCAR found :  1 types and       4 ions
 LDA part: xc-table for Pade appr. of Perdew
 POSCAR, INCAR and KPOINTS ok, starting setup
 FFT: planning ...
 WAVECAR not read
 entering main loop
       N       E                     dE             d eps       ncg     rms          rms(c)
DAV:   1     0.185742774113E+03    0.18574E+03   -0.10650E+04  5928   0.275E+03
DAV:   2    -0.970702672267E+01   -0.19545E+03   -0.17324E+03 10272   0.259E+02
DAV:   3    -0.381156216457E+02   -0.28409E+02   -0.27819E+02  7432   0.118E+02    0.709E+00
RMM:   4    -0.375728146131E+02    0.54281E+00   -0.93519E+00  5928   0.262E+01    0.411E+00
RMM:   5    -0.368674187502E+02    0.70540E+00   -0.26319E+00  5930   0.111E+01    0.698E-01
RMM:   6    -0.368690079421E+02   -0.15892E-02   -0.78366E-02  6364   0.200E+00    0.501E-01
RMM:   7    -0.368602247097E+02    0.87832E-02   -0.31045E-02  5941   0.153E+00    0.326E-01
RMM:   8    -0.368553143847E+02    0.49103E-02   -0.62771E-03  5928   0.527E-01    0.136E-01
RMM:   9    -0.368550852410E+02    0.22914E-03   -0.19591E-02  5928   0.828E-01    0.150E-01
RMM:  10    -0.368550130358E+02    0.72205E-04   -0.21346E-03  5928   0.335E-01    0.271E-02
RMM:  11    -0.368572631983E+02   -0.22502E-02   -0.63857E-04  5928   0.169E-01    0.413E-02
RMM:  12    -0.368577838723E+02   -0.52067E-03   -0.20969E-04  5943   0.953E-02    0.420E-03
RMM:  13    -0.368580240620E+02   -0.24019E-03   -0.41537E-05  6052   0.326E-02    0.272E-03
RMM:  14    -0.368581061607E+02   -0.82099E-04   -0.98591E-06  6007   0.133E-02    0.824E-04
RMM:  15    -0.368581192685E+02   -0.13108E-04   -0.15913E-06  5951   0.666E-03    0.221E-03
RMM:  16    -0.368581321243E+02   -0.12856E-04   -0.19871E-06  5928   0.934E-03    0.146E-03
RMM:  17    -0.368581381969E+02   -0.60727E-05   -0.24480E-07  5928   0.303E-03    0.409E-04
RMM:  18    -0.368581391757E+02   -0.97878E-06   -0.21799E-08  5988   0.124E-03    0.957E-05
WARNING in EDDRMM: call to ZHEGV failed, returncode =   6  3  1
WARNING in EDDRMM: call to ZHEGV failed, returncode =   6  3  1
WARNING in EDDRMM: call to ZHEGV failed, returncode =   6  3  1
WARNING in EDDRMM: call to ZHEGV failed, returncode =   6  3  1
WARNING in EDDRMM: call to ZHEGV failed, returncode =   6  3  1
WARNING in EDDRMM: call to ZHEGV failed, returncode =   6  3  1
WARNING in EDDRMM: call to ZHEGV failed, returncode =   6  3  1
WARNING in EDDRMM: call to ZHEGV failed, returncode =   6  3  1
WARNING in EDDRMM: call to ZHEGV failed, returncode =   6  3  1
WARNING in EDDRMM: call to ZHEGV failed, returncode =   6  3  1
WARNING in EDDRMM: call to ZHEGV failed, returncode =   6  3  1
WARNING in EDDRMM: call to ZHEGV failed, returncode =   6  3  1
WARNING in EDDRMM: call to ZHEGV failed, returncode =   6  3  1
WARNING in EDDRMM: call to ZHEGV failed, returncode =   6  3  1
WARNING in EDDRMM: call to ZHEGV failed, returncode =   6  3  1
RMM:  19    -0.368581399228E+02   -0.74703E-06   -0.98679E-09  5583   0.429E-04    0.153E-05
RMM:  20    -0.368581399553E+02   -0.32514E-07   -0.56666E-10  4511   0.124E-04    0.208E-05
RMM:  21    -0.368581399672E+02   -0.11873E-07   -0.17740E-10  4287   0.760E-05    0.884E-06
RMM:  22    -0.368581399674E+02   -0.20214E-09   -0.19746E-11  3890   0.499E-05    0.487E-07
RMM:  23    -0.368581399680E+02   -0.60447E-09   -0.19410E-11  3624   0.397E-05    0.178E-06
RMM:  24    -0.368581399680E+02    0.79581E-11   -0.62419E-12  3091   0.288E-05
   1 F= -.36858140E+02 E0= -.36858140E+02  d E =-.368581E+02
 BRION: g(F)=  0.240E-07 g(S)=  0.000E+00
 bond charge predicted
       N       E                     dE             d eps       ncg     rms          rms(c)
DAV:   1    -0.368581399342E+02    0.33711E-07   -0.31840E-06  6268   0.167E-02    0.334E-04
RMM:   2    -0.368581399388E+02   -0.45216E-08   -0.51127E-08  5972   0.199E-03    0.243E-04
RMM:   3    -0.368581399397E+02   -0.88926E-09   -0.86114E-09  5957   0.746E-04    0.653E-05
RMM:   4    -0.368581399393E+02    0.32605E-09   -0.57772E-10  5308   0.194E-04    0.187E-05
RMM:   5    -0.368581399395E+02   -0.17690E-09   -0.32947E-11  3780   0.586E-05    0.738E-06
RMM:   6    -0.368581399392E+02    0.31787E-09   -0.10707E-11  3346   0.409E-05    0.169E-06
RMM:   7    -0.368581399392E+02   -0.17394E-10   -0.80057E-12  3123   0.339E-05
   2 F= -.36858140E+02 E0= -.36858140E+02  d E =0.287416E-07
 BRION: g(F)=  0.327E-06 g(S)=  0.000E+00 retain N=  1 mean eig= 0.21
 eig:   0.213
 bond charge predicted
       N       E                     dE             d eps       ncg     rms          rms(c)
DAV:   1    -0.368581399735E+02   -0.34354E-07   -0.19673E-06  6816   0.132E-02    0.265E-04
RMM:   2    -0.368581399739E+02   -0.30616E-09   -0.30613E-08  5957   0.156E-03    0.191E-04
RMM:   3    -0.368581399711E+02    0.27835E-08   -0.52808E-09  5947   0.585E-04    0.499E-05
RMM:   4    -0.368581399712E+02   -0.11528E-09   -0.32791E-10  4465   0.151E-04    0.143E-05
RMM:   5    -0.368581399710E+02    0.14802E-09   -0.18400E-11  3701   0.585E-05    0.646E-06
RMM:   6    -0.368581399714E+02   -0.33833E-09   -0.17532E-11  3334   0.424E-05    0.163E-06
RMM:   7    -0.368581399710E+02    0.39438E-09   -0.69209E-12  3071   0.335E-05    0.971E-07
RMM:   8    -0.368581399714E+02   -0.39392E-09   -0.20310E-12  2854   0.291E-05    0.174E-07
RMM:   9    -0.368581399711E+02    0.24920E-09   -0.27211E-12  2565   0.265E-05    0.428E-07
RMM:  10    -0.368581399712E+02   -0.42292E-10   -0.18690E-12  2344   0.243E-05
   3 F= -.36858140E+02 E0= -.36858140E+02  d E =-.319570E-07
 BRION: g(F)=  0.351E-14 g(S)=  0.000E+00 retain N=  1 mean eig= 0.21
 eig:   0.213
 reached required accuracy - stopping structural energy minimisation
