    4    4  400    1
  0.5270948E+02  0.4380311E-09  0.2457157E-09  0.1958894E-08  0.5000000E-15
  1.000000000000000E-004
  CAR 
 gr                                      
     16    247     12
 
  0.0000000E+00  0.0000000E+00  0.0000000E+00  0.1157407E-02
    1      -22.080260
    2      -17.258015
    3      -15.832220
    4      -10.225072
    5       -8.803958
    6       -6.006993
    7       -5.727037
    8       -5.335855
    9       -1.186200
   10        0.544857
   11        1.343001
   12        1.735637
 
  0.4166667E-01  0.0000000E+00  0.0000000E+00  0.2314815E-02
    1      -22.070503
    2      -17.376107
    3      -15.699148
    4      -10.213495
    5       -8.794515
    6       -6.051285
    7       -5.747098
    8       -5.394551
    9       -1.111788
   10        0.558053
   11        1.356390
   12        1.749195
 
  0.8333333E-01  0.0000000E+00  0.0000000E+00  0.2314815E-02
    1      -22.041238
    2      -17.649417
    3      -15.380977
    4      -10.178783
    5       -8.766234
    6       -6.182047
    7       -5.806240
    8       -5.558798
    9       -0.900548
   10        0.597650
   11        1.396553
   12        1.789870
 
  0.1250000E+00  0.0000000E+00  0.0000000E+00  0.2314815E-02
    1      -21.992484
    2      -17.979676
    3      -14.976202
    4      -10.120994
    5       -8.719270
    6       -6.393351
    7       -5.901497
    8       -5.801374
    9       -0.580177
   10        0.663667
   11        1.463474
   12        1.857665
 
  0.1666667E+00  0.0000000E+00  0.0000000E+00  0.2314815E-02
    1      -21.924278
    2      -18.324430
    3      -14.527667
    4      -10.040226
    5       -8.653880
    6       -6.676528
    7       -6.093878
    8       -6.028412
    9       -0.179876
   10        0.756130
   11        1.557126
   12        1.952587
 
  0.2083333E+00  0.0000000E+00  0.0000000E+00  0.2314815E-02
    1      -21.836669
    2      -18.667299
    3      -14.052314
    4       -9.936622
    5       -8.570441
    6       -7.021471
    7       -6.414038
    8       -6.181608
    9        0.276921
   10        0.875055
   11        1.677468
   12        2.074637
 
  0.2500000E+00  0.0000000E+00  0.0000000E+00  0.2314815E-02
    1      -21.729724
    2      -19.001125
    3      -13.558046
    4       -9.810373
    5       -8.469451
    6       -7.417783
    7       -6.746359
    8       -6.355336
    9        0.773154
   10        1.020441
   11        1.824430
   12        2.223817
 
  0.2916667E+00  0.0000000E+00  0.0000000E+00  0.2314815E-02
    1      -21.603525
    2      -19.322314
    3      -13.049410
    4       -9.661726
    5       -8.351554
    6       -7.855587
    7       -7.080465
    8       -6.543922
    9        1.192276
   10        1.296383
   11        1.997908
   12        2.400126
 
  0.3333333E+00  0.0000000E+00  0.0000000E+00  0.2314815E-02
    1      -21.458179
    2      -19.628833
    3      -12.529632
    4       -9.490999
    5       -8.325970
    6       -8.217553
    7       -7.409396
    8       -6.742068
    9        1.390528
   10        1.836836
   11        2.197717
   12        2.603559
 
  0.3750000E+00  0.0000000E+00  0.0000000E+00  0.2314815E-02
    1      -21.293806
    2      -19.919420
    3      -12.001438
    4       -9.298586
    5       -8.821144
    6       -8.068438
    7       -7.728398
    8       -6.945011
    9        1.615149
   10        2.385348
   11        2.423516
   12        2.834110
 
  0.4166667E+00  0.0000000E+00  0.0000000E+00  0.2314815E-02
    1      -21.110561
    2      -20.193224
    3      -11.467462
    4       -9.334432
    5       -9.084987
    6       -8.034141
    7       -7.905421
    8       -7.148584
    9        1.866075
   10        2.674533
   11        2.927790
   12        3.091830
 
  0.4583333E+00  0.0000000E+00  0.0000000E+00  0.2314815E-02
    1      -20.908625
    2      -20.449642
    3      -10.930472
    4       -9.860164
    5       -8.850828
    6       -8.324231
    7       -7.729969
    8       -7.349210
    9        2.143219
   10        2.775654
   11        2.948518
   12        3.373940
 
  0.5000000E+00  0.0000000E+00  0.0000000E+00  0.1157407E-02
    1      -20.688226
    2      -20.688226
    3      -10.393538
    4      -10.393538
    5       -8.596902
    6       -8.596902
    7       -7.543855
    8       -7.543855
    9        2.446465
   10        2.446465
   11        3.234481
   12        3.234481
 
  0.0000000E+00  0.2777778E-01  0.0000000E+00  0.2314815E-02
    1      -22.066431
    2      -17.246010
    3      -15.820428
    4      -10.208659
    5       -8.867282
    6       -6.033077
    7       -5.786100
    8       -5.319168
    9       -1.188637
   10        0.563592
   11        1.361926
   12        1.754800
 
  0.4166667E-01  0.2777778E-01  0.0000000E+00  0.4629630E-02
    1      -22.056675
    2      -17.363984
    3      -15.687519
    4      -10.197086
    5       -8.857827
    6       -6.078086
    7       -5.804840
    8       -5.377978
    9       -1.114212
   10        0.576789
   11        1.375314
   12        1.768358
 
  0.8333333E-01  0.2777778E-01  0.0000000E+00  0.4629630E-02
    1      -22.027414
    2      -17.637073
    3      -15.369703
    4      -10.162386
    5       -8.829511
    6       -6.209692
    7       -5.861432
    8       -5.542493
    9       -0.903010
   10        0.616385
   11        1.415475
   12        1.809033
 
  0.1250000E+00  0.2777778E-01  0.0000000E+00  0.4629630E-02
    1      -21.978668
    2      -17.967119
    3      -14.965369
    4      -10.104616
    5       -8.782485
    6       -6.420364
    7       -5.954800
    8       -5.785358
    9       -0.582860
   10        0.682404
   11        1.482392
   12        1.876829
 
  0.1666667E+00  0.2777778E-01  0.0000000E+00  0.4629630E-02
    1      -21.910473
    2      -18.311688
    3      -14.517349
    4      -10.023875
    5       -8.717005
    6       -6.701256
    7       -6.081020
    8       -6.078088
    9       -0.183051
   10        0.774869
   11        1.576041
   12        1.971751
 
  0.2083333E+00  0.2777778E-01  0.0000000E+00  0.4629630E-02
    1      -21.822879
    2      -18.654396
    3      -14.042596
    4       -9.920305
    5       -8.633437
    6       -7.042813
    7       -6.398389
    8       -6.234483
    9        0.272962
   10        0.893796
   11        1.696377
   12        2.093802
 
  0.2500000E+00  0.2777778E-01  0.0000000E+00  0.4629630E-02
    1      -21.715952
    2      -18.988084
    3      -13.549029
    4       -9.794098
    5       -8.532277
    6       -7.435247
    7       -6.730776
    8       -6.409069
    9        0.768137
   10        1.039188
   11        1.843335
   12        2.242984
 
  0.2916667E+00  0.2777778E-01  0.0000000E+00  0.4629630E-02
    1      -21.589777
    2      -19.309154
    3      -13.041217
    4       -9.645501
    5       -8.414154
    6       -7.869124
    7       -7.064891
    8       -6.598806
    9        1.211029
   10        1.290068
   11        2.016808
   12        2.419295
 
  0.3333333E+00  0.2777778E-01  0.0000000E+00  0.4629630E-02
    1      -21.444457
    2      -19.615569
    3      -12.522408
    4       -9.474831
    5       -8.335797
    6       -8.279864
    7       -7.393792
    8       -6.798191
    9        1.409288
   10        1.829050
   11        2.216617
   12        2.622732
 
  0.3750000E+00  0.2777778E-01  0.0000000E+00  0.4629630E-02
    1      -21.280117
    2      -19.906067
    3      -11.995357
    4       -9.282482
    5       -8.827611
    6       -8.130382
    7       -7.712740
    8       -7.002337
    9        1.633918
   10        2.376094
   11        2.442422
   12        2.853287
 
  0.4166667E+00  0.2777778E-01  0.0000000E+00  0.4629630E-02
    1      -21.096909
    2      -20.179793
    3      -11.462730
    4       -9.337936
    5       -9.068952
    6       -8.018414
    7       -7.966904
    8       -7.207012
    9        1.884854
   10        2.693455
   11        2.917893
   12        3.110983
 
  0.4583333E+00  0.2777778E-01  0.0000000E+00  0.4629630E-02
    1      -20.895017
    2      -20.436144
    3      -10.927332
    4       -9.861100
    5       -8.834867
    6       -8.308427
    7       -7.790884
    8       -7.408606
    9        2.162010
   10        2.794489
   11        2.967451
   12        3.373142
 
  0.5000000E+00  0.2777778E-01  0.0000000E+00  0.2314815E-02
    1      -20.674669
    2      -20.674669
    3      -10.392273
    4      -10.392273
    5       -8.581020
    6       -8.581020
    7       -7.604079
    8       -7.604079
    9        2.465274
   10        2.465274
   11        3.253001
   12        3.253001
 
  0.0000000E+00  0.5555556E-01  0.0000000E+00  0.2314815E-02
    1      -22.024952
    2      -17.209998
    3      -15.785194
    4      -10.159455
    5       -9.052119
    6       -6.110939
    7       -5.958429
    8       -5.269128
    9       -1.196751
   10        0.619798
   11        1.418693
   12        1.812291
 
  0.4166667E-01  0.5555556E-01  0.0000000E+00  0.4629630E-02
    1      -22.015200
    2      -17.327622
    3      -15.652771
    4      -10.147894
    5       -9.042625
    6       -6.160887
    7       -5.970449
    8       -5.328288
    9       -1.122287
   10        0.632994
   11        1.432079
   12        1.825849
 
  0.8333333E-01  0.5555556E-01  0.0000000E+00  0.4629630E-02
    1      -21.985953
    2      -17.600055
    3      -15.336024
    4      -10.113229
    5       -9.014191
    6       -6.297851
    7       -6.016653
    8       -5.493629
    9       -0.911193
   10        0.672590
   11        1.472233
   12        1.866524
 
  0.1250000E+00  0.5555556E-01  0.0000000E+00  0.4629630E-02
    1      -21.937231
    2      -17.929466
    3      -14.933026
    4      -10.055518
    5       -8.966959
    6       -6.507320
    7       -6.103755
    8       -5.737381
    9       -0.591717
   10        0.738609
   11        1.539140
   12        1.934321
 
  0.1666667E+00  0.5555556E-01  0.0000000E+00  0.4629630E-02
    1      -21.869070
    2      -18.273478
    3      -14.486573
    4       -9.974859
    5       -8.901172
    6       -6.781078
    7       -6.228235
    8       -6.030801
    9       -0.193410
   10        0.831076
   11        1.632775
   12        2.029244
 
  0.2083333E+00  0.5555556E-01  0.0000000E+00  0.4629630E-02
    1      -21.781521
    2      -18.615706
    3      -14.013654
    4       -9.871394
    5       -8.817179
    6       -7.111853
    7       -6.383159
    8       -6.351529
    9        0.260209
   10        0.950009
   11        1.753095
   12        2.151297
 
  0.2500000E+00  0.5555556E-01  0.0000000E+00  0.4629630E-02
    1      -21.674649
    2      -18.948979
    3      -13.522238
    4       -9.745316
    5       -8.715448
    6       -7.491910
    7       -6.684114
    8       -6.561073
    9        0.752145
   10        1.095410
   11        1.900037
   12        2.300483
 
  0.2916667E+00  0.5555556E-01  0.0000000E+00  0.4629630E-02
    1      -21.548544
    2      -19.269689
    3      -13.016958
    4       -9.596870
    5       -8.596579
    6       -7.913258
    7       -7.018255
    8       -6.754992
    9        1.267265
   10        1.270096
   11        2.073497
   12        2.476801
 
  0.3333333E+00  0.5555556E-01  0.0000000E+00  0.4629630E-02
    1      -21.403305
    2      -19.575794
    3      -12.501138
    4       -9.426372
    5       -8.461329
    6       -8.368117
    7       -7.347063
    8       -6.958748
    9        1.465541
   10        1.804548
   11        2.273304
   12        2.680245
 
  0.3750000E+00  0.5555556E-01  0.0000000E+00  0.4629630E-02
    1      -21.239061
    2      -19.866021
    3      -11.977623
    4       -9.234218
    5       -8.849263
    6       -8.310629
    7       -7.665843
    8       -7.167060
    9        1.690190
   10        2.346982
   11        2.499126
   12        2.910811
 
  0.4166667E+00  0.5555556E-01  0.0000000E+00  0.4629630E-02
    1      -21.055966
    2      -20.139514
    3      -11.449183
    4       -9.350216
    5       -9.020900
    6       -8.145626
    7       -7.971305
    8       -7.375494
    9        1.941148
   10        2.750211
   11        2.886123
   12        3.168491
 
  0.4583333E+00  0.5555556E-01  0.0000000E+00  0.4629630E-02
    1      -20.854205
    2      -20.395662
    3      -10.918744
    4       -9.865288
    5       -8.787043
    6       -8.261083
    7       -7.967718
    8       -7.580359
    9        2.218331
   10        2.850901
   11        3.024243
   12        3.366659
 
  0.5000000E+00  0.5555556E-01  0.0000000E+00  0.2314815E-02
    1      -20.634010
    2      -20.634010
    3      -10.389549
    4      -10.389549
    5       -8.533434
    6       -8.533434
    7       -7.778605
    8       -7.778605
    9        2.521630
   10        2.521630
   11        3.308305
   12        3.308306
 
  0.0000000E+00  0.8333333E-01  0.0000000E+00  0.2314815E-02
    1      -21.955858
    2      -17.149993
    3      -15.726961
    4      -10.077567
    5       -9.344518
    6       -6.239404
    7       -6.230971
    8       -5.185799
    9       -1.212961
   10        0.713473
   11        1.513279
   12        1.908112
 
  0.4166667E-01  0.8333333E-01  0.0000000E+00  0.4629630E-02
    1      -21.946114
    2      -17.267052
    3      -15.595341
    4      -10.066025
    5       -9.334946
    6       -6.324555
    7       -6.204923
    8       -5.245579
    9       -1.138413
   10        0.726667
   11        1.526661
   12        1.921667
 
  0.8333333E-01  0.8333333E-01  0.0000000E+00  0.4629630E-02
    1      -21.916890
    2      -17.538410
    3      -15.280388
    4      -10.031421
    5       -9.306271
    6       -6.472474
    7       -6.232050
    8       -5.412371
    9       -0.927480
   10        0.766258
   11        1.566803
   12        1.962342
 
  0.1250000E+00  0.8333333E-01  0.0000000E+00  0.4629630E-02
    1      -21.868209
    2      -17.866771
    3      -14.879667
    4       -9.973810
    5       -9.258621
    6       -6.677435
    7       -6.311529
    8       -5.657668
    9       -0.609152
   10        0.832270
   11        1.633691
   12        2.030138
 
  0.1666667E+00  0.8333333E-01  0.0000000E+00  0.4629630E-02
    1      -21.800105
    2      -18.209857
    3      -14.435915
    4       -9.893292
    5       -9.192214
    6       -6.936722
    7       -6.435949
    8       -5.952277
    9       -0.213435
   10        0.924732
   11        1.727300
   12        2.125061
 
  0.2083333E+00  0.8333333E-01  0.0000000E+00  0.4629630E-02
    1      -21.712629
    2      -18.551282
    3      -13.966177
    4       -9.790008
    5       -9.107362
    6       -7.246839
    7       -6.596145
    8       -6.273734
    9        0.236047
   10        1.043663
   11        1.847590
   12        2.247120
 
  0.2500000E+00  0.8333333E-01  0.0000000E+00  0.4629630E-02
    1      -21.605853
    2      -18.883860
    3      -13.478519
    4       -9.664150
    5       -9.004483
    6       -7.603347
    7       -6.782559
    8       -6.606648
    9        0.722380
   10        1.189067
   11        1.994500
   12        2.396307
 
  0.2916667E+00  0.8333333E-01  0.0000000E+00  0.4629630E-02
    1      -21.479861
    2      -19.203969
    3      -12.977691
    4       -9.515965
    5       -8.884117
    6       -8.000845
    7       -6.986370
    8       -6.940820
    9        1.233435
   10        1.360930
   11        2.167935
   12        2.572631
 
  0.3333333E+00  0.8333333E-01  0.0000000E+00  0.4629630E-02
    1      -21.334758
    2      -19.509553
    3      -12.467161
    4       -9.345765
    5       -8.746940
    6       -8.433245
    7       -7.269460
    8       -7.200086
    9        1.559218
   10        1.759980
   11        2.367733
   12        2.776085
 
  0.3750000E+00  0.8333333E-01  0.0000000E+00  0.4629630E-02
    1      -21.170676
    2      -19.799328
    3      -11.949948
    4       -9.153944
    5       -8.894209
    6       -8.593791
    7       -7.587941
    8       -7.417641
    9        1.783882
   10        2.294114
   11        2.593584
   12        3.006663
 
  0.4166667E+00  0.8333333E-01  0.0000000E+00  0.4629630E-02
    1      -20.987769
    2      -20.072428
    3      -11.429027
    4       -9.377561
    5       -8.940992
    6       -8.425702
    7       -7.893031
    8       -7.634224
    9        2.034855
   10        2.826928
   11        2.844765
   12        3.264358
 
  0.4583333E+00  0.8333333E-01  0.0000000E+00  0.4629630E-02
    1      -20.786228
    2      -20.328236
    3      -10.907568
    4       -9.877570
    5       -8.707528
    6       -8.243945
    7       -8.182400
    8       -7.846039
    9        2.312053
   10        2.944678
   11        3.118877
   12        3.330688
 
  0.5000000E+00  0.8333333E-01  0.0000000E+00  0.2314815E-02
    1      -20.566289
    2      -20.566289
    3      -10.389087
    4      -10.389087
    5       -8.454332
    6       -8.454332
    7       -8.050080
    8       -8.050080
    9        2.615373
   10        2.615373
   11        3.399100
   12        3.399101
 
  0.0000000E+00  0.1111111E+00  0.0000000E+00  0.2314815E-02
    1      -21.859209
    2      -17.066013
    3      -15.646567
    4       -9.963174
    5       -9.725146
    6       -6.586003
    7       -6.416471
    8       -5.069292
    9       -1.241297
   10        0.844613
   11        1.645645
   12        2.042258
 
  0.4166667E-01  0.1111111E+00  0.0000000E+00  0.4629630E-02
    1      -21.849477
    2      -17.182321
    3      -15.516058
    4       -9.951662
    5       -9.715433
    6       -6.639092
    7       -6.418695
    8       -5.130019
    9       -1.166590
   10        0.857802
   11        1.659021
   12        2.055814
 
  0.8333333E-01  0.1111111E+00  0.0000000E+00  0.4629630E-02
    1      -21.820287
    2      -17.452222
    3      -15.203653
    4       -9.917145
    5       -9.686326
    6       -6.772914
    7       -6.449113
    8       -5.299012
    9       -0.955823
   10        0.897380
   11        1.699143
   12        2.096487
 
  0.1250000E+00  0.1111111E+00  0.0000000E+00  0.4629630E-02
    1      -21.771661
    2      -17.779132
    3      -14.806245
    4       -9.859682
    5       -9.637926
    6       -6.963161
    7       -6.527011
    8       -5.546622
    9       -0.639133
   10        0.963372
   11        1.765999
   12        2.164279
 
  0.1666667E+00  0.1111111E+00  0.0000000E+00  0.4629630E-02
    1      -21.703636
    2      -18.120923
    3      -14.366487
    4       -9.779370
    5       -9.570406
    6       -7.200441
    7       -6.653686
    8       -5.842985
    9       -0.247205
   10        1.055810
   11        1.859565
   12        2.259200
 
  0.2083333E+00  0.1111111E+00  0.0000000E+00  0.4629630E-02
    1      -21.616266
    2      -18.461218
    3      -13.901518
    4       -9.676351
    5       -9.484010
    6       -7.480479
    7       -6.822789
    8       -6.165496
    9        0.196201
   10        1.174718
   11        1.979803
   12        2.381254
 
  0.2500000E+00  0.1111111E+00  0.0000000E+00  0.4629630E-02
    1      -21.509622
    2      -18.792817
    3      -13.419557
    4       -9.550816
    5       -9.379066
    6       -7.800949
    7       -7.024300
    8       -6.498866
    9        0.674301
   10        1.320104
   11        2.126657
   12        2.530445
 
  0.2916667E+00  0.1111111E+00  0.0000000E+00  0.4629630E-02
    1      -21.383789
    2      -19.112077
    3      -12.925555
    4       -9.403011
    5       -9.255991
    6       -8.159912
    7       -7.247051
    8       -6.833058
    9        1.175210
   10        1.491955
   11        2.300043
   12        2.706773
 
  0.3333333E+00  0.1111111E+00  0.0000000E+00  0.4629630E-02
    1      -21.238879
    2      -19.416924
    3      -12.423234
    4       -9.233249
    5       -9.115304
    6       -8.554657
    7       -7.480765
    8       -7.161423
    9        1.690037
   10        1.690235
   11        2.499815
   12        2.910235
 
  0.3750000E+00  0.1111111E+00  0.0000000E+00  0.4629630E-02
    1      -21.075023
    2      -19.706061
    3      -11.915925
    4       -9.041918
    5       -8.981198
    6       -8.957646
    7       -7.717221
    8       -7.479447
    9        1.914890
   10        2.211511
   11        2.725703
   12        3.140823
 
  0.4166667E+00  0.1111111E+00  0.0000000E+00  0.4629630E-02
    1      -20.892381
    2      -19.978608
    3      -11.406992
    4       -9.434486
    5       -8.829507
    6       -8.783804
    7       -7.950434
    8       -7.783974
    9        2.165852
   10        2.732634
   11        2.977043
   12        3.398535
 
  0.4583333E+00  0.1111111E+00  0.0000000E+00  0.4629630E-02
    1      -20.691152
    2      -20.233936
    3      -10.900067
    4       -9.908983
    5       -8.596624
    6       -8.594749
    7       -8.176232
    8       -8.072731
    9        2.443033
   10        3.075600
   11        3.241497
   12        3.251320
 
  0.5000000E+00  0.1111111E+00  0.0000000E+00  0.2314815E-02
    1      -20.471572
    2      -20.471572
    3      -10.399207
    4      -10.399207
    5       -8.391702
    6       -8.391702
    7       -8.344038
    8       -8.344038
    9        2.746327
   10        2.746327
   11        3.517876
   12        3.517895
 
  0.0000000E+00  0.1388889E+00  0.0000000E+00  0.2314815E-02
    1      -21.735093
    2      -16.958091
    3      -15.545419
    4      -10.172815
    5       -9.816537
    6       -7.004810
    7       -6.639309
    8       -4.919764
    9       -1.287341
   10        1.013206
   11        1.815732
   12        2.214735
 
  0.4166667E-01  0.1388889E+00  0.0000000E+00  0.4629630E-02
    1      -21.725375
    2      -17.073505
    3      -15.416322
    4      -10.162860
    5       -9.805065
    6       -7.050807
    7       -6.644109
    8       -4.981867
    9       -1.212329
   10        1.026387
   11        1.829097
   12        2.228290
 
  0.8333333E-01  0.1388889E+00  0.0000000E+00  0.4629630E-02
    1      -21.696227
    2      -17.341619
    3      -15.107283
    4      -10.133010
    5       -9.770669
    6       -7.174588
    7       -6.671612
    8       -5.154019
    9       -1.001620
   10        1.065940
   11        1.869187
   12        2.268958
 
  0.1250000E+00  0.1388889E+00  0.0000000E+00  0.4629630E-02
    1      -21.647673
    2      -17.666697
    3      -14.714412
    4      -10.083318
    5       -9.713406
    6       -7.354006
    7       -6.740573
    8       -5.404887
    9       -0.687035
   10        1.131894
   11        1.935991
   12        2.336744
 
  0.1666667E+00  0.1388889E+00  0.0000000E+00  0.4629630E-02
    1      -21.579753
    2      -18.006825
    3      -14.280265
    4      -10.013869
    5       -9.633375
    6       -7.574879
    7       -6.859345
    8       -5.703665
    9       -0.300203
   10        1.224282
   11        2.029485
   12        2.431655
 
  0.2083333E+00  0.1388889E+00  0.0000000E+00  0.4629630E-02
    1      -21.492519
    2      -18.345658
    3      -13.822126
    4       -9.924781
    5       -9.530717
    6       -7.829503
    7       -7.027386
    8       -6.027583
    9        0.134967
   10        1.343135
   11        2.149635
   12        2.553701
 
  0.2500000E+00  0.1388889E+00  0.0000000E+00  0.4629630E-02
    1      -21.386043
    2      -18.675984
    3      -13.348471
    4       -9.816199
    5       -9.405624
    6       -8.114211
    7       -7.238087
    8       -6.361524
    9        0.601912
   10        1.488468
   11        2.296390
   12        2.702886
 
  0.2916667E+00  0.1388889E+00  0.0000000E+00  0.4629630E-02
    1      -21.260418
    2      -18.994139
    3      -12.864610
    4       -9.688289
    5       -9.258341
    6       -8.428107
    7       -7.480723
    8       -6.695687
    9        1.089083
   10        1.660270
   11        2.469678
   12        2.879212
 
  0.3333333E+00  0.1388889E+00  0.0000000E+00  0.4629630E-02
    1      -21.115756
    2      -19.298027
    3      -12.374727
    4       -9.541236
    5       -9.089178
    6       -8.771931
    7       -7.742450
    8       -7.023628
    9        1.587997
   10        1.858506
   11        2.669381
   12        3.082676
 
  0.3750000E+00  0.1388889E+00  0.0000000E+00  0.4629630E-02
    1      -20.952193
    2      -19.586332
    3      -11.882755
    4       -9.375239
    5       -9.146509
    6       -8.898522
    7       -8.010605
    8       -7.340984
    9        2.083117
   10        2.091960
   11        2.895290
   12        3.313271
 
  0.4166667E+00  0.1388889E+00  0.0000000E+00  0.4629630E-02
    1      -20.769896
    2      -19.858159
    3      -11.392811
    4       -9.551198
    5       -9.190518
    6       -8.686854
    7       -8.274813
    8       -7.644709
    9        2.334027
   10        2.595194
   11        3.146875
   12        3.570988
 
  0.4583333E+00  0.1388889E+00  0.0000000E+00  0.4629630E-02
    1      -20.569069
    2      -20.112862
    3      -10.909444
    4       -9.983152
    5       -8.987353
    6       -8.528025
    7       -8.454774
    8       -7.932603
    9        2.611142
   10        3.091674
   11        3.243503
   12        3.421515
 
  0.5000000E+00  0.1388889E+00  0.0000000E+00  0.2314815E-02
    1      -20.349957
    2      -20.349957
    3      -10.437727
    4      -10.437727
    5       -8.766209
    6       -8.766209
    7       -8.203038
    8       -8.203038
    9        2.914347
   10        2.914347
   11        3.556425
   12        3.556523
 
  0.0000000E+00  0.1666667E+00  0.0000000E+00  0.2314815E-02
    1      -21.583623
    2      -16.826266
    3      -15.425864
    4      -10.666757
    5       -9.638005
    6       -7.470138
    7       -6.904282
    8       -4.737422
    9       -1.358018
   10        1.219229
   11        2.023453
   12        2.425543
 
  0.4166667E-01  0.1666667E+00  0.0000000E+00  0.4629630E-02
    1      -21.573923
    2      -16.940715
    3      -15.298485
    4      -10.656386
    5       -9.626586
    6       -7.514830
    7       -6.905372
    8       -4.801504
    9       -1.282417
   10        1.232398
   11        2.036801
   12        2.439096
 
  0.8333333E-01  0.1666667E+00  0.0000000E+00  0.4629630E-02
    1      -21.544828
    2      -17.206792
    3      -14.993778
    4      -10.625257
    5       -9.592348
    6       -7.636463
    7       -6.920540
    8       -4.978114
    9       -1.071407
   10        1.271915
   11        2.076840
   12        2.479756
 
  0.1250000E+00  0.1666667E+00  0.0000000E+00  0.4629630E-02
    1      -21.496364
    2      -17.529683
    3      -14.607055
    4      -10.573327
    5       -9.535349
    6       -7.812791
    7       -6.970207
    8       -5.233456
    9       -0.759269
   10        1.337807
   11        2.143557
   12        2.547529
 
  0.1666667E+00  0.1666667E+00  0.0000000E+00  0.4629630E-02
    1      -21.428569
    2      -17.867782
    3      -14.180783
    4      -10.500504
    5       -9.455687
    6       -8.027016
    7       -7.067625
    8       -5.535442
    9       -0.378888
   10        1.430112
   11        2.236929
   12        2.642423
 
  0.2083333E+00  0.1666667E+00  0.0000000E+00  0.4629630E-02
    1      -21.341501
    2      -18.204808
    3      -13.732511
    4      -10.406635
    5       -9.353506
    6       -8.268710
    7       -7.217533
    8       -5.861147
    9        0.045721
   10        1.548868
   11        2.356921
   12        2.764449
 
  0.2500000E+00  0.1666667E+00  0.0000000E+00  0.4629630E-02
    1      -21.235235
    2      -18.533553
    3      -13.271196
    4      -10.291471
    5       -9.228997
    6       -8.531756
    7       -7.418146
    8       -6.195740
    9        0.498372
   10        1.694098
   11        2.503488
   12        2.913616
 
  0.2916667E+00  0.1666667E+00  0.0000000E+00  0.4629630E-02
    1      -21.109864
    2      -18.850332
    3      -12.802834
    4      -10.154621
    5       -9.082404
    6       -8.813166
    7       -7.662704
    8       -6.529761
    9        0.968013
   10        1.865801
   11        2.676565
   12        3.089930
 
  0.3333333E+00  0.1666667E+00  0.0000000E+00  0.4629630E-02
    1      -20.965507
    2      -19.153026
    3      -12.332544
    4       -9.995504
    5       -9.112596
    6       -8.914036
    7       -7.940661
    8       -6.857049
    9        1.446685
   10        2.063942
   11        2.876065
   12        3.293387
 
  0.3750000E+00  0.1666667E+00  0.0000000E+00  0.4629630E-02
    1      -20.802307
    2      -19.440296
    3      -11.865470
    4       -9.813309
    5       -9.431978
    6       -8.724277
    7       -8.238860
    8       -7.173448
    9        1.928274
   10        2.288460
   11        3.101863
   12        3.523982
 
  0.4166667E+00  0.1666667E+00  0.0000000E+00  0.4629630E-02
    1      -20.620439
    2      -19.711225
    3      -11.407191
    4       -9.774718
    5       -9.607040
    6       -8.543035
    7       -8.513601
    8       -7.476052
    9        2.407780
   10        2.539269
   11        3.353711
   12        3.781917
 
  0.4583333E+00  0.1666667E+00  0.0000000E+00  0.4629630E-02
    1      -20.420110
    2      -19.965154
    3      -10.963744
    4      -10.144063
    5       -9.375774
    6       -8.839900
    7       -8.282600
    8       -7.762761
    9        2.816261
   10        2.880867
   11        3.448253
   12        3.629248
 
  0.5000000E+00  0.1666667E+00  0.0000000E+00  0.2314815E-02
    1      -20.201579
    2      -20.201579
    3      -10.541112
    4      -10.541112
    5       -9.119388
    6       -9.119388
    7       -8.032009
    8       -8.032009
    9        3.119306
   10        3.119306
   11        3.343391
   12        3.343400
 