gr                                      
           1
     4.380311    0.000000    0.000000
     0.000000    2.457157    0.000000
     0.000000    0.000000   19.588936
   C 
   4
Direct configuration=     1
   0.99945869  0.00000000  0.00000000
   0.16720798  0.50000000  0.00000000
   0.49945869  0.50000000  0.00000000
   0.66720798  0.00000000  0.00000000
Direct configuration=     2
   0.99946258 -0.00000000  0.00000000
   0.16720409  0.50000000  0.00000000
   0.49946258  0.50000000  0.00000000
   0.66720409 -0.00000000  0.00000000
Direct configuration=     3
   0.99945952 -0.00000000  0.00000000
   0.16720715  0.50000000 -0.00000000
   0.49945952  0.50000000  0.00000000
   0.66720715 -0.00000000 -0.00000000
