 running on    8 total cores
 distrk:  each k-point on    8 cores,    1 groups
 distr:  one band on    2 cores,    4 groups
 using from now: INCAR     
 vasp.5.3.5 31Mar14 (build Mar 02 2015 18:14:16) complex                        
  
 POSCAR found type information on POSCAR  C 
 POSCAR found :  1 types and       4 ions
 LDA part: xc-table for Pade appr. of Perdew
 POSCAR, INCAR and KPOINTS ok, starting setup
 FFT: planning ...
 WAVECAR not read
 entering main loop
       N       E                     dE             d eps       ncg     rms          rms(c)
DAV:   1     0.190981613533E+03    0.19098E+03   -0.10635E+04  5928   0.275E+03
DAV:   2    -0.890132964834E+01   -0.19988E+03   -0.17758E+03 10448   0.259E+02
DAV:   3    -0.384219149897E+02   -0.29521E+02   -0.29001E+02  7372   0.120E+02    0.736E+00
RMM:   4    -0.377126018850E+02    0.70931E+00   -0.92280E+00  5928   0.264E+01    0.426E+00
RMM:   5    -0.369368349235E+02    0.77577E+00   -0.28547E+00  5930   0.116E+01    0.733E-01
RMM:   6    -0.369380590068E+02   -0.12241E-02   -0.81663E-02  6369   0.203E+00    0.523E-01
RMM:   7    -0.369283811436E+02    0.96779E-02   -0.33699E-02  5936   0.160E+00    0.348E-01
RMM:   8    -0.369225046386E+02    0.58765E-02   -0.78984E-03  5929   0.589E-01    0.135E-01
RMM:   9    -0.369221803108E+02    0.32433E-03   -0.21168E-02  5928   0.862E-01    0.164E-01
RMM:  10    -0.369219923243E+02    0.18799E-03   -0.27633E-03  5928   0.379E-01    0.306E-02
RMM:  11    -0.369245895664E+02   -0.25972E-02   -0.77008E-04  5931   0.181E-01    0.472E-02
RMM:  12    -0.369250436975E+02   -0.45413E-03   -0.25079E-04  5935   0.105E-01    0.473E-03
RMM:  13    -0.369253084154E+02   -0.26472E-03   -0.53584E-05  6017   0.410E-02    0.480E-03
RMM:  14    -0.369253956901E+02   -0.87275E-04   -0.12375E-05  5938   0.206E-02    0.247E-03
RMM:  15    -0.369254033028E+02   -0.76127E-05   -0.14814E-06  6010   0.731E-03    0.707E-04
RMM:  16    -0.369254144693E+02   -0.11167E-04   -0.35003E-07  6053   0.327E-03    0.357E-04
RMM:  17    -0.369254177576E+02   -0.32883E-05   -0.29887E-08  6083   0.142E-03    0.661E-04
RMM:  18    -0.369254199796E+02   -0.22220E-05   -0.92982E-08  5928   0.204E-03    0.124E-04
WARNING in EDDRMM: call to ZHEGV failed, returncode =   6  3  1
WARNING in EDDRMM: call to ZHEGV failed, returncode =   6  3  1
RMM:  19    -0.369254202280E+02   -0.24846E-06   -0.40262E-09  5981   0.424E-04    0.216E-05
RMM:  20    -0.369254202873E+02   -0.59259E-07   -0.60380E-10  4486   0.117E-04    0.487E-06
RMM:  21    -0.369254202913E+02   -0.40418E-08   -0.45867E-11  3958   0.529E-05    0.566E-06
RMM:  22    -0.369254202924E+02   -0.10408E-08   -0.20287E-11  3505   0.392E-05    0.214E-06
RMM:  23    -0.369254202924E+02   -0.66279E-10   -0.77914E-12  3233   0.316E-05
   1 F= -.36925420E+02 E0= -.36925356E+02  d E =-.369254E+02
 BRION: g(F)=  0.606E-03 g(S)=  0.000E+00
 bond charge predicted
       N       E                     dE             d eps       ncg     rms          rms(c)
DAV:   1    -0.369245160214E+02    0.90427E-03   -0.81960E-02  6832   0.269E+00    0.587E-02
RMM:   2    -0.369245539307E+02   -0.37909E-04   -0.13185E-03  5930   0.324E-01    0.415E-02
RMM:   3    -0.369245109435E+02    0.42987E-04   -0.23836E-04  5954   0.124E-01    0.103E-02
RMM:   4    -0.369245068594E+02    0.40841E-05   -0.14033E-05  6090   0.299E-02    0.296E-03
RMM:   5    -0.369245070016E+02   -0.14225E-06   -0.10902E-06  6181   0.750E-03    0.146E-03
RMM:   6    -0.369245069215E+02    0.80108E-07   -0.18803E-07  6099   0.334E-03    0.107E-04
WARNING in EDDRMM: call to ZHEGV failed, returncode =   6  3  1
RMM:   7    -0.369245069215E+02    0.87311E-10   -0.10634E-08  6090   0.739E-04    0.842E-05
RMM:   8    -0.369245069208E+02    0.67598E-09   -0.79003E-10  5411   0.220E-04    0.137E-05
RMM:   9    -0.369245069209E+02   -0.10971E-09   -0.42586E-11  3859   0.680E-05    0.383E-06
RMM:  10    -0.369245069207E+02    0.18792E-09   -0.24543E-11  3798   0.526E-05    0.850E-07
RMM:  11    -0.369245069212E+02   -0.53114E-09   -0.10283E-11  3472   0.404E-05    0.350E-07
RMM:  12    -0.369245069208E+02    0.38403E-09   -0.83793E-12  3178   0.335E-05    0.181E-07
RMM:  13    -0.369245069210E+02   -0.11983E-09   -0.47887E-12  2940   0.289E-05    0.141E-07
RMM:  14    -0.369245069212E+02   -0.21782E-09   -0.26444E-12  2703   0.259E-05    0.103E-07
RMM:  15    -0.369245069214E+02   -0.18758E-09   -0.96814E-13  2501   0.237E-05    0.647E-08
RMM:  16    -0.369245069211E+02    0.30673E-09    0.67717E-13  2355   0.219E-05    0.694E-08
RMM:  17    -0.369245069212E+02   -0.92541E-10   -0.30229E-12  2215   0.213E-05
   2 F= -.36924507E+02 E0= -.36924461E+02  d E =0.913371E-03
 BRION: g(F)=  0.987E-02 g(S)=  0.000E+00 retain N=  1 mean eig= 0.20
 eig:   0.199
 bond charge predicted
       N       E                     dE             d eps       ncg     rms          rms(c)
DAV:   1    -0.369254885582E+02   -0.98164E-03   -0.52610E-02  6340   0.216E+00    0.471E-02
RMM:   2    -0.369255114821E+02   -0.22924E-04   -0.83357E-04  5928   0.260E-01    0.333E-02
RMM:   3    -0.369254834403E+02    0.28042E-04   -0.14985E-04  5969   0.987E-02    0.798E-03
RMM:   4    -0.369254810068E+02    0.24335E-05   -0.84320E-06  6076   0.230E-02    0.236E-03
RMM:   5    -0.369254810807E+02   -0.73867E-07   -0.65795E-07  6194   0.587E-03    0.112E-03
RMM:   6    -0.369254810356E+02    0.45049E-07   -0.10872E-07  6094   0.254E-03    0.844E-05
WARNING in EDDRMM: call to ZHEGV failed, returncode =   6  3  1
WARNING in EDDRMM: call to ZHEGV failed, returncode =   6  3  1
RMM:   7    -0.369254810373E+02   -0.16498E-08   -0.63756E-09  6087   0.574E-04    0.658E-05
RMM:   8    -0.369254810372E+02    0.92427E-10   -0.45431E-10  4749   0.170E-04
   3 F= -.36925481E+02 E0= -.36925416E+02  d E =-.974116E-03
 BRION: g(F)=  0.510E-07 g(S)=  0.000E+00 retain N=  1 mean eig= 0.20
 eig:   0.198
 bond charge predicted
       N       E                     dE             d eps       ncg     rms          rms(c)
DAV:   1    -0.369254810422E+02   -0.49536E-08   -0.26120E-07  6720   0.487E-03    0.107E-04
WARNING in EDDRMM: call to ZHEGV failed, returncode =   6  3  1
RMM:   2    -0.369254810427E+02   -0.50500E-09   -0.42251E-09  5887   0.587E-04    0.756E-05
WARNING in EDDRMM: call to ZHEGV failed, returncode =   6  3  1
RMM:   3    -0.369254810428E+02   -0.46157E-10   -0.79615E-10  5826   0.232E-04    0.178E-05
RMM:   4    -0.369254810426E+02    0.15712E-09   -0.16252E-11  3717   0.590E-05    0.492E-06
RMM:   5    -0.369254810430E+02   -0.33742E-09   -0.36554E-11  3748   0.590E-05    0.862E-06
RMM:   6    -0.369254810428E+02    0.14143E-09   -0.11187E-11  3066   0.336E-05    0.194E-06
 num prob  num prob  num prob  num prob  num prob  num prob  num prob  num prob  num prob  num prob  num prob  num prob  num prob  num prob  num prob  num prob  num prob RMM:   7    -0.369254810431E+02   -0.22033E-09   -0.46782E-12  2613   0.278E-05    0.191E-06
 num prob  num prob  num prob  num prob  num prob  num prob  num prob  num prob  num prob  num prob  num prob  num prob  num prob  num prob  num prob  num prob  num prob RMM:   8    -0.369254810430E+02    0.67757E-10   -0.65976E-12  2311   0.247E-05
   4 F= -.36925481E+02 E0= -.36925416E+02  d E =-.578859E-08
 BRION: g(F)=  0.611E-11 g(S)=  0.000E+00 retain N=  1 mean eig= 0.20
 eig:   0.196
 bond charge predicted
       N       E                     dE             d eps       ncg     rms          rms(c)
DAV:   1    -0.369254810421E+02    0.91518E-09    0.57684E-09  5044   0.583E-05    0.655E-07
RMM:   2    -0.369254810426E+02   -0.47976E-09    0.19778E-14  1864   0.171E-05    0.401E-07
RMM:   3    -0.369254810429E+02   -0.31298E-09   -0.51099E-13  1766   0.175E-05    0.314E-08
RMM:   4    -0.369254810431E+02   -0.20225E-09    0.32879E-13  1663   0.171E-05    0.231E-08
RMM:   5    -0.369254810426E+02    0.49238E-09   -0.37254E-14  1619   0.170E-05    0.166E-08
RMM:   6    -0.369254810430E+02   -0.40359E-09   -0.25959E-13  1561   0.169E-05    0.128E-08
RMM:   7    -0.369254810429E+02    0.18747E-09   -0.60277E-13  1430   0.164E-05    0.189E-08
RMM:   8    -0.369254810431E+02   -0.19793E-09   -0.25177E-13  1387   0.161E-05    0.227E-08
RMM:   9    -0.369254810430E+02    0.62187E-10   -0.19347E-13  1435   0.160E-05
   5 F= -.36925481E+02 E0= -.36925416E+02  d E =-.704858E-11
 BRION: g(F)=  0.966E-12 g(S)=  0.000E+00 retain N=  1 mean eig= 0.14
 eig:   0.140
 bond charge predicted
       N       E                     dE             d eps       ncg     rms          rms(c)
DAV:   1    -0.369254810425E+02    0.56718E-09    0.58025E-09  4444   0.172E-05    0.335E-07
RMM:   2    -0.369254810428E+02   -0.26512E-09    0.20605E-13  1284   0.525E-06    0.206E-07
RMM:   3    -0.369254810428E+02   -0.22283E-10   -0.68957E-14  1279   0.526E-06    0.502E-09
RMM:   4    -0.369254810427E+02    0.47976E-10   -0.32978E-14  1251   0.527E-06    0.191E-09
RMM:   5    -0.369254810427E+02    0.48544E-10   -0.10181E-13  1152   0.528E-06
   6 F= -.36925481E+02 E0= -.36925416E+02  d E =0.314117E-09
 BRION: g(F)=  0.137E-11 g(S)=  0.000E+00 retain N=  1 mean eig= 0.06
 eig:   0.064
 bond charge predicted
       N       E                     dE             d eps       ncg     rms          rms(c)
DAV:   1    -0.369254810424E+02    0.36869E-09    0.58084E-09  4504   0.841E-06    0.655E-08
RMM:   2    -0.369254810431E+02   -0.75590E-09    0.68669E-15   445   0.324E-06    0.400E-08
RMM:   3    -0.369254810429E+02    0.20873E-09    0.27879E-14   915   0.322E-06    0.113E-09
RMM:   4    -0.369254810428E+02    0.88221E-10   -0.15954E-14   821   0.321E-06    0.655E-10
RMM:   5    -0.369254810431E+02   -0.30661E-09   -0.74837E-15   946   0.321E-06    0.435E-10
RMM:   6    -0.369254810428E+02    0.29547E-09    0.14063E-14   547   0.321E-06    0.216E-10
RMM:   7    -0.369254810429E+02   -0.11664E-09    0.46917E-14   843   0.321E-06    0.271E-10
RMM:   8    -0.369254810429E+02    0.78217E-10    0.98686E-15   374   0.322E-06
   7 F= -.36925481E+02 E0= -.36925416E+02  d E =-.188379E-09
 BRION: g(F)=  0.446E-13 g(S)=  0.000E+00 retain N=  1 mean eig= 0.08
 eig:   0.078
 reached required accuracy - stopping structural energy minimisation
