    4    4  400    1
  0.5270948E+02  0.4273552E-09  0.2467793E-09  0.1999176E-08  0.5000000E-15
  1.000000000000000E-004
  CAR 
 gr                                      
     16    247     12
 
  0.0000000E+00  0.0000000E+00  0.0000000E+00  0.1157407E-02
    1      -22.250924
    2      -17.018033
    3      -15.971137
    4      -10.356834
    5       -9.160497
    6       -5.788188
    7       -5.786171
    8       -5.109293
    9       -1.076312
   10        0.524194
   11        1.325231
   12        1.708339
 
  0.4166667E-01  0.0000000E+00  0.0000000E+00  0.2314815E-02
    1      -22.240676
    2      -17.183115
    3      -15.790795
    4      -10.344592
    5       -9.150311
    6       -5.828905
    7       -5.810766
    8       -5.175800
    9       -0.993833
   10        0.538094
   11        1.339314
   12        1.722592
 
  0.8333333E-01  0.0000000E+00  0.0000000E+00  0.2314815E-02
    1      -22.209937
    2      -17.520183
    3      -15.408030
    4      -10.307884
    5       -9.119803
    6       -5.955347
    7       -5.877250
    8       -5.360340
    9       -0.761549
   10        0.579797
   11        1.381560
   12        1.765353
 
  0.1250000E+00  0.0000000E+00  0.0000000E+00  0.2314815E-02
    1      -22.158725
    2      -17.896596
    3      -14.955744
    4      -10.246767
    5       -9.069127
    6       -6.160514
    7       -5.984103
    8       -5.629591
    9       -0.413300
   10        0.649309
   11        1.451957
   12        1.836622
 
  0.1666667E+00  0.0000000E+00  0.0000000E+00  0.2314815E-02
    1      -22.087076
    2      -18.275663
    3      -14.471069
    4      -10.161339
    5       -8.998545
    6       -6.436974
    7       -6.126054
    8       -5.950526
    9        0.017019
   10        0.746633
   11        1.550482
   12        1.936402
 
  0.2083333E+00  0.0000000E+00  0.0000000E+00  0.2314815E-02
    1      -21.995038
    2      -18.646051
    3      -13.965979
    4      -10.051742
    5       -8.908435
    6       -6.775847
    7       -6.298568
    8       -6.296821
    9        0.503578
   10        0.871771
   11        1.677102
   12        2.064691
 
  0.2500000E+00  0.0000000E+00  0.0000000E+00  0.2314815E-02
    1      -21.882673
    2      -19.003197
    3      -13.445879
    4       -9.918164
    5       -8.799304
    6       -7.167736
    7       -6.657341
    8       -6.489780
    9        1.024709
   10        1.028334
   11        1.831766
   12        2.221491
 
  0.2916667E+00  0.0000000E+00  0.0000000E+00  0.2314815E-02
    1      -21.750062
    2      -19.344844
    3      -12.914103
    4       -9.760850
    5       -8.671804
    6       -7.603446
    7       -7.016219
    8       -6.698492
    9        1.205424
   10        1.578485
   11        2.014395
   12        2.406799
 
  0.3333333E+00  0.0000000E+00  0.0000000E+00  0.2314815E-02
    1      -21.597304
    2      -19.669691
    3      -12.373294
    4       -9.580110
    5       -8.526752
    6       -8.074433
    7       -7.368228
    8       -6.917030
    9        1.413879
   10        2.144140
   11        2.224865
   12        2.620608
 
  0.3750000E+00  0.0000000E+00  0.0000000E+00  0.2314815E-02
    1      -21.424511
    2      -19.976896
    3      -11.825931
    4       -9.376335
    5       -8.573035
    6       -8.365162
    7       -7.708673
    8       -7.140145
    9        1.650022
   10        2.462960
   11        2.715978
   12        2.862912
 
  0.4166667E+00  0.0000000E+00  0.0000000E+00  0.2314815E-02
    1      -21.231820
    2      -20.265868
    3      -11.274595
    4       -9.150013
    5       -9.092527
    6       -8.188274
    7       -8.034293
    8       -7.363305
    9        1.913780
   10        2.728231
   11        3.133695
   12        3.242166
 
  0.4583333E+00  0.0000000E+00  0.0000000E+00  0.2314815E-02
    1      -21.019395
    2      -20.536161
    3      -10.722121
    4       -9.627091
    5       -8.901755
    6       -8.342754
    7       -7.997604
    8       -7.582662
    9        2.205055
   10        2.869534
   11        3.019520
   12        3.432931
 
  0.5000000E+00  0.0000000E+00  0.0000000E+00  0.1157407E-02
    1      -20.787431
    2      -20.787431
    3      -10.171721
    4      -10.171721
    5       -8.632338
    6       -8.632338
    7       -7.794991
    8       -7.794991
    9        2.523710
   10        2.523710
   11        3.332150
   12        3.332150
 
  0.0000000E+00  0.2777778E-01  0.0000000E+00  0.2314815E-02
    1      -22.237266
    2      -17.006313
    3      -15.959560
    4      -10.340518
    5       -9.222054
    6       -5.844971
    7       -5.816362
    8       -5.092672
    9       -1.080272
   10        0.542720
   11        1.344002
   12        1.727336
 
  0.4166667E-01  0.2777778E-01  0.0000000E+00  0.4629630E-02
    1      -22.227018
    2      -17.171226
    3      -15.779438
    4      -10.328280
    5       -9.211851
    6       -5.886550
    7       -5.839419
    8       -5.159325
    9       -0.997766
   10        0.556621
   11        1.358084
   12        1.741590
 
  0.8333333E-01  0.2777778E-01  0.0000000E+00  0.4629630E-02
    1      -22.196283
    2      -17.508034
    3      -15.397089
    4      -10.291584
    5       -9.181291
    6       -6.009409
    7       -5.907581
    8       -5.344200
    9       -0.765505
   10        0.598326
   11        1.400328
   12        1.784351
 
  0.1250000E+00  0.2777778E-01  0.0000000E+00  0.4629630E-02
    1      -22.145079
    2      -17.884219
    3      -14.945297
    4      -10.230489
    5       -9.130524
    6       -6.209098
    7       -6.017095
    8       -5.613794
    9       -0.417508
   10        0.667841
   11        1.470720
   12        1.855621
 
  0.1666667E+00  0.2777778E-01  0.0000000E+00  0.4629630E-02
    1      -22.073440
    2      -18.263093
    3      -14.461201
    4      -10.145091
    5       -9.059807
    6       -6.478977
    7       -6.162293
    8       -5.934982
    9        0.012226
   10        0.765172
   11        1.569239
   12        1.955402
 
  0.2083333E+00  0.2777778E-01  0.0000000E+00  0.4629630E-02
    1      -21.981416
    2      -18.633316
    3      -13.956793
    4      -10.035531
    5       -8.969507
    6       -6.810894
    7       -6.336527
    8       -6.283171
    9        0.497854
   10        0.890318
   11        1.695852
   12        2.083693
 
  0.2500000E+00  0.2777778E-01  0.0000000E+00  0.4629630E-02
    1      -21.869069
    2      -18.990320
    3      -13.437504
    4       -9.901999
    5       -8.860121
    6       -7.196001
    7       -6.642003
    8       -6.532896
    9        1.021355
   10        1.043266
   11        1.850507
   12        2.240495
 
  0.2916667E+00  0.2777778E-01  0.0000000E+00  0.4629630E-02
    1      -21.736481
    2      -19.331846
    3      -12.906693
    4       -9.744739
    5       -8.732282
    6       -7.625452
    7       -7.000876
    8       -6.744774
    9        1.223993
   10        1.569973
   11        2.033129
   12        2.425806
 
  0.3333333E+00  0.2777778E-01  0.0000000E+00  0.4629630E-02
    1      -21.583748
    2      -19.656588
    3      -12.367038
    4       -9.564063
    5       -8.586792
    6       -8.090878
    7       -7.352840
    8       -6.966136
    9        1.432462
   10        2.133896
   11        2.243593
   12        2.639619
 
  0.3750000E+00  0.2777778E-01  0.0000000E+00  0.4629630E-02
    1      -21.410987
    2      -19.963704
    3      -11.821058
    4       -9.360358
    5       -8.584661
    6       -8.424637
    7       -7.693214
    8       -7.191691
    9        1.668619
   10        2.481687
   11        2.704025
   12        2.881928
 
  0.4166667E+00  0.2777778E-01  0.0000000E+00  0.4629630E-02
    1      -21.218332
    2      -20.252598
    3      -11.271384
    4       -9.134114
    5       -9.100054
    6       -8.247031
    7       -8.018750
    8       -7.416913
    9        1.932395
   10        2.746970
   11        3.152733
   12        3.261304
 
  0.4583333E+00  0.2777778E-01  0.0000000E+00  0.4629630E-02
    1      -21.005949
    2      -20.522824
    3      -10.720908
    4       -9.631166
    5       -8.885940
    6       -8.327119
    7       -8.055455
    8       -7.637982
    9        2.223692
   10        2.888253
   11        3.038288
   12        3.451966
 
  0.5000000E+00  0.2777778E-01  0.0000000E+00  0.2314815E-02
    1      -20.774036
    2      -20.774036
    3      -10.172910
    4      -10.172910
    5       -8.616612
    6       -8.616612
    7       -7.851710
    8       -7.851710
    9        2.542378
   10        2.542378
   11        3.350895
   12        3.350895
 
  0.0000000E+00  0.5555556E-01  0.0000000E+00  0.2314815E-02
    1      -22.196299
    2      -16.971156
    3      -15.924980
    4      -10.291603
    5       -9.401796
    6       -6.010801
    7       -5.906199
    8       -5.042830
    9       -1.092985
   10        0.598304
   11        1.400307
   12        1.784330
 
  0.4166667E-01  0.5555556E-01  0.0000000E+00  0.4629630E-02
    1      -22.186056
    2      -17.135572
    3      -15.745514
    4      -10.279378
    5       -9.391537
    6       -6.053397
    7       -5.926264
    8       -5.109934
    9       -1.010390
   10        0.612205
   11        1.414386
   12        1.798583
 
  0.8333333E-01  0.5555556E-01  0.0000000E+00  0.4629630E-02
    1      -22.155334
    2      -17.471608
    3      -15.364417
    4      -10.242720
    5       -9.360806
    6       -6.173755
    7       -5.991337
    8       -5.295839
    9       -0.778188
   10        0.653914
   11        1.456622
   12        1.841345
 
  0.1250000E+00  0.5555556E-01  0.0000000E+00  0.4629630E-02
    1      -22.104152
    2      -17.847111
    3      -14.914127
    4      -10.181689
    5       -9.309740
    6       -6.362813
    7       -6.103172
    8       -5.566485
    9       -0.430959
   10        0.723437
   11        1.527000
   12        1.912617
 
  0.1666667E+00  0.5555556E-01  0.0000000E+00  0.4629630E-02
    1      -22.032546
    2      -18.225403
    3      -14.431801
    4      -10.096380
    5       -9.238576
    6       -6.615232
    7       -6.255945
    8       -5.888445
    9       -0.003008
   10        0.820782
   11        1.625501
   12        2.012401
 
  0.2083333E+00  0.5555556E-01  0.0000000E+00  0.4629630E-02
    1      -21.940564
    2      -18.595130
    3      -13.929491
    4       -9.986935
    5       -9.147652
    6       -6.926106
    7       -6.440836
    8       -6.237077
    9        0.479773
   10        0.945947
   11        1.752091
   12        2.140697
 
  0.2500000E+00  0.5555556E-01  0.0000000E+00  0.4629630E-02
    1      -21.828271
    2      -18.951709
    3      -13.412700
    4       -9.853544
    5       -9.037423
    6       -7.289508
    7       -6.648833
    8       -6.596083
    9        0.999438
   10        1.098920
   11        1.906721
   12        2.297505
 
  0.2916667E+00  0.5555556E-01  0.0000000E+00  0.4629630E-02
    1      -21.695749
    2      -19.292869
    3      -12.884878
    4       -9.696451
    5       -8.908473
    6       -7.698493
    7       -6.954940
    8       -6.871905
    9        1.279678
   10        1.543366
   11        2.089317
   12        2.482823
 
  0.3333333E+00  0.5555556E-01  0.0000000E+00  0.4629630E-02
    1      -21.543095
    2      -19.617296
    3      -12.348809
    4       -9.515965
    5       -8.761533
    6       -8.145645
    7       -7.306761
    8       -7.103301
    9        1.488180
   10        2.101966
   11        2.299761
   12        2.696647
 
  0.3750000E+00  0.5555556E-01  0.0000000E+00  0.4629630E-02
    1      -21.370426
    2      -19.924141
    3      -11.807151
    4       -9.312476
    5       -8.623653
    6       -8.597511
    7       -7.646918
    8       -7.337471
    9        1.724376
   10        2.537851
   11        2.666711
   12        2.938969
 
  0.4166667E+00  0.5555556E-01  0.0000000E+00  0.4629630E-02
    1      -21.177882
    2      -20.212801
    3      -11.262693
    4       -9.125704
    5       -9.086469
    6       -8.417516
    7       -7.972193
    8       -7.569886
    9        1.988195
   10        2.803166
   11        3.209777
   12        3.225407
 
  0.4583333E+00  0.5555556E-01  0.0000000E+00  0.4629630E-02
    1      -20.965627
    2      -20.482826
    3      -10.718530
    4       -9.645673
    5       -8.838553
    6       -8.280285
    7       -8.222910
    8       -7.796850
    9        2.279545
   10        2.944294
   11        3.094581
   12        3.509053
 
  0.5000000E+00  0.5555556E-01  0.0000000E+00  0.2314815E-02
    1      -20.733863
    2      -20.733863
    3      -10.178174
    4      -10.178174
    5       -8.569497
    6       -8.569497
    7       -8.015347
    8       -8.015347
    9        2.598303
   10        2.598303
   11        3.407107
   12        3.407107
 
  0.0000000E+00  0.8333333E-01  0.0000000E+00  0.2314815E-02
    1      -22.128060
    2      -16.912576
    3      -15.867884
    4      -10.210191
    5       -9.686305
    6       -6.273485
    7       -6.053525
    8       -4.959828
    9       -1.116945
   10        0.690956
   11        1.494124
   12        1.879321
 
  0.4166667E-01  0.8333333E-01  0.0000000E+00  0.4629630E-02
    1      -22.117824
    2      -17.076198
    3      -15.689490
    4      -10.197988
    5       -9.675935
    6       -6.317369
    7       -6.069154
    8       -5.027730
    9       -1.034176
   10        0.704858
   11        1.508199
   12        1.893575
 
  0.8333333E-01  0.8333333E-01  0.0000000E+00  0.4629630E-02
    1      -22.087124
    2      -17.410975
    3      -15.310498
    4      -10.161396
    5       -9.644863
    6       -6.438732
    7       -6.124296
    8       -5.215445
    9       -0.802039
   10        0.746567
   11        1.550419
   12        1.936338
 
  0.1250000E+00  0.8333333E-01  0.0000000E+00  0.4629630E-02
    1      -22.035980
    2      -17.785344
    3      -14.862787
    4      -10.100474
    5       -9.593204
    6       -6.622151
    7       -6.228406
    8       -5.487924
    9       -0.456110
   10        0.816095
   11        1.620773
   12        2.007611
 
  0.1666667E+00  0.8333333E-01  0.0000000E+00  0.4629630E-02
    1      -21.964428
    2      -18.162663
    3      -14.383539
    4      -10.015318
    5       -9.521153
    6       -6.858276
    7       -6.381427
    8       -5.811212
    9       -0.031228
   10        0.913449
   11        1.719239
   12        2.107397
 
  0.2083333E+00  0.8333333E-01  0.0000000E+00  0.4629630E-02
    1      -21.872517
    2      -18.531556
    3      -13.884907
    4       -9.906071
    5       -9.428990
    6       -7.142363
    7       -6.576081
    8       -6.160595
    9        0.446644
   10        1.038632
   11        1.845787
   12        2.235698
 
  0.2500000E+00  0.8333333E-01  0.0000000E+00  0.4629630E-02
    1      -21.760315
    2      -18.887421
    3      -13.372533
    4       -9.772921
    5       -9.317087
    6       -7.471923
    7       -6.801257
    8       -6.519885
    9        0.959697
   10        1.191632
   11        2.000368
   12        2.392514
 
  0.2916667E+00  0.8333333E-01  0.0000000E+00  0.4629630E-02
    1      -21.627903
    2      -19.227967
    3      -12.850040
    4       -9.616113
    5       -9.185917
    6       -7.844714
    7       -7.045083
    8       -6.878697
    9        1.372424
   10        1.495525
   11        2.182913
   12        2.577842
 
  0.3333333E+00  0.8333333E-01  0.0000000E+00  0.4629630E-02
    1      -21.475381
    2      -19.551866
    3      -12.320431
    4       -9.435956
    5       -9.036070
    6       -8.257268
    7       -7.297285
    8       -7.230261
    9        1.580966
   10        2.044864
   11        2.393316
   12        2.791679
 
  0.3750000E+00  0.8333333E-01  0.0000000E+00  0.4629630E-02
    1      -21.302868
    2      -19.858255
    3      -11.786634
    4       -9.232838
    5       -8.868269
    6       -8.704534
    7       -7.570030
    8       -7.550168
    9        1.817205
   10        2.599910
   11        2.631390
   12        3.034017
 
  0.4166667E+00  0.8333333E-01  0.0000000E+00  0.4629630E-02
    1      -21.110507
    2      -20.146523
    3      -11.251785
    4       -9.180453
    5       -9.007240
    6       -8.683390
    7       -7.894850
    8       -7.798370
    9        2.081070
   10        2.896758
   11        3.151738
   12        3.304847
 
  0.4583333E+00  0.8333333E-01  0.0000000E+00  0.4629630E-02
    1      -20.898468
    2      -20.416209
    3      -10.719398
    4       -9.678752
    5       -8.759768
    6       -8.482498
    7       -8.202457
    8       -8.038171
    9        2.372473
   10        3.037397
   11        3.188359
   12        3.604157
 
  0.5000000E+00  0.8333333E-01  0.0000000E+00  0.2314815E-02
    1      -20.666955
    2      -20.666955
    3      -10.193505
    4      -10.193505
    5       -8.491183
    6       -8.491183
    7       -8.266891
    8       -8.266891
    9        2.691300
   10        2.691300
   11        3.500689
   12        3.500689
 
  0.0000000E+00  0.1111111E+00  0.0000000E+00  0.2314815E-02
    1      -22.032610
    2      -16.830591
    3      -15.789188
    4      -10.096455
    5      -10.056865
    6       -6.616341
    7       -6.254876
    8       -4.843768
    9       -1.156274
   10        0.820693
   11        1.625417
   12        2.012315
 
  0.4166667E-01  0.1111111E+00  0.0000000E+00  0.4629630E-02
    1      -22.022385
    2      -16.993183
    3      -15.612251
    4      -10.084283
    5      -10.046299
    6       -6.661867
    7       -6.264765
    8       -4.912895
    9       -1.073194
   10        0.834592
   11        1.639484
   12        2.026569
 
  0.8333333E-01  0.1111111E+00  0.0000000E+00  0.4629630E-02
    1      -21.991716
    2      -17.326254
    3      -15.236260
    4      -10.047788
    5      -10.014626
    6       -6.786300
    7       -6.305127
    8       -5.103362
    9       -0.841050
   10        0.876292
   11        1.681679
   12        2.069330
 
  0.1250000E+00  0.1111111E+00  0.0000000E+00  0.4629630E-02
    1      -21.940626
    2      -17.699046
    3      -14.792352
    4       -9.987025
    5       -9.961918
    6       -6.969553
    7       -6.391685
    8       -5.378583
    9       -0.496961
   10        0.945810
   11        1.751992
   12        2.140603
 
  0.1666667E+00  0.1111111E+00  0.0000000E+00  0.4629630E-02
    1      -21.869149
    2      -18.074994
    3      -14.317727
    4       -9.902093
    5       -9.888295
    6       -7.197751
    7       -6.531078
    8       -5.703821
    9       -0.076552
   10        1.043157
   11        1.850402
   12        2.240389
 
  0.2083333E+00  0.1111111E+00  0.0000000E+00  0.4629630E-02
    1      -21.777339
    2      -18.442707
    3      -13.824706
    4       -9.793922
    5       -9.793135
    6       -7.463018
    7       -6.721366
    8       -6.054278
    9        0.394138
   10        1.168341
   11        1.976877
   12        2.368693
 
  0.2500000E+00  0.1111111E+00  0.0000000E+00  0.4629630E-02
    1      -21.665264
    2      -18.797559
    3      -13.319167
    4       -9.679011
    5       -9.660338
    6       -7.761641
    7       -6.954491
    8       -6.413947
    9        0.897519
   10        1.321352
   11        2.131374
   12        2.525514
 
  0.2916667E+00  0.1111111E+00  0.0000000E+00  0.4629630E-02
    1      -21.533006
    2      -19.137234
    3      -12.805047
    4       -9.543815
    5       -9.503948
    6       -8.092908
    7       -7.218307
    8       -6.772657
    9        1.421497
   10        1.502164
   11        2.313829
   12        2.710852
 
  0.3333333E+00  0.1111111E+00  0.0000000E+00  0.4629630E-02
    1      -21.380669
    2      -19.460384
    3      -12.285758
    4       -9.388624
    5       -9.324274
    6       -8.457734
    7       -7.498845
    8       -7.123811
    9        1.710733
   10        1.957207
   11        2.524148
   12        2.924700
 
  0.3750000E+00  0.1111111E+00  0.0000000E+00  0.4629630E-02
    1      -21.208375
    2      -19.766127
    3      -11.764758
    4       -9.213761
    5       -9.121700
    6       -8.856719
    7       -7.782998
    8       -7.462988
    9        1.947000
   10        2.497539
   11        2.762175
   12        3.167054
 
  0.4166667E+00  0.1111111E+00  0.0000000E+00  0.4629630E-02
    1      -21.016273
    2      -20.053840
    3      -11.245865
    4       -9.288411
    5       -9.019578
    6       -8.896706
    7       -8.060752
    8       -7.787120
    9        2.210893
   10        3.027602
   11        3.035847
   12        3.437905
 
  0.4583333E+00  0.1111111E+00  0.0000000E+00  0.4629630E-02
    1      -20.804539
    2      -20.323047
    3      -10.733452
    4       -9.748877
    5       -8.806473
    6       -8.649890
    7       -8.325843
    8       -8.094001
    9        2.502322
   10        3.167314
   11        3.319518
   12        3.559266
 
  0.5000000E+00  0.1111111E+00  0.0000000E+00  0.2314815E-02
    1      -20.573380
    2      -20.573380
    3      -10.232561
    4      -10.232561
    5       -8.574954
    6       -8.574954
    7       -8.382004
    8       -8.382004
    9        2.821176
   10        2.821176
   11        3.631242
   12        3.631242
 
  0.0000000E+00  0.1388889E+00  0.0000000E+00  0.2314815E-02
    1      -21.910037
    2      -16.725230
    3      -15.690453
    4      -10.492792
    5       -9.950644
    6       -7.021585
    7       -6.505696
    8       -4.694797
    9       -1.216606
   10        0.987522
   11        1.794129
   12        2.183315
 
  0.4166667E-01  0.1388889E+00  0.0000000E+00  0.4629630E-02
    1      -21.899825
    2      -16.886650
    3      -15.515312
    4      -10.481893
    5       -9.938515
    6       -7.069070
    7       -6.508823
    8       -4.765717
    9       -1.132972
   10        1.001412
   11        1.808182
   12        2.197567
 
  0.8333333E-01  0.1388889E+00  0.0000000E+00  0.4629630E-02
    1      -21.869197
    2      -17.217638
    3      -15.143318
    4      -10.449192
    5       -9.902149
    6       -7.197823
    7       -6.531055
    8       -4.960148
    9       -0.900577
   10        1.043091
   11        1.850339
   12        2.240325
 
  0.1250000E+00  0.1388889E+00  0.0000000E+00  0.4629630E-02
    1      -21.818176
    2      -17.588416
    3      -14.704723
    4      -10.394680
    5       -9.841604
    6       -7.384170
    7       -6.593363
    8       -5.239224
    9       -0.558818
   10        1.112576
   11        1.920586
   12        2.311593
 
  0.1666667E+00  0.1388889E+00  0.0000000E+00  0.4629630E-02
    1      -21.746799
    2      -17.962584
    3      -14.236746
    4      -10.318330
    5       -9.756977
    6       -7.610854
    7       -6.708112
    8       -5.567128
    9       -0.144397
   10        1.209888
   11        2.018904
   12        2.411375
 
  0.2083333E+00  0.1388889E+00  0.0000000E+00  0.4629630E-02
    1      -21.655120
    2      -18.328754
    3      -13.751981
    4      -10.220083
    5       -9.648412
    6       -7.867316
    7       -6.878574
    8       -5.918996
    9        0.316616
   10        1.335041
   11        2.145260
   12        2.539677
 
  0.2500000E+00  0.1388889E+00  0.0000000E+00  0.4629630E-02
    1      -21.543207
    2      -18.682278
    3      -13.256732
    4      -10.099820
    5       -9.516098
    6       -8.147441
    7       -7.101336
    8       -6.279108
    9        0.806984
   10        1.488030
   11        2.299611
   12        2.696499
 
  0.2916667E+00  0.1388889E+00  0.0000000E+00  0.4629630E-02
    1      -21.411149
    2      -19.020811
    3      -12.755526
    4       -9.957326
    5       -9.360281
    6       -8.448444
    7       -7.367986
    8       -6.637604
    9        1.315061
   10        1.668831
   11        2.481900
   12        2.881841
 
  0.3333333E+00  0.1388889E+00  0.0000000E+00  0.4629630E-02
    1      -21.259051
    2      -19.342979
    3      -12.252576
    4       -9.792239
    5       -9.181267
    6       -8.770434
    7       -7.666376
    8       -6.988134
    9        1.832464
   10        1.877397
   11        2.692046
   12        3.095698
 
  0.3750000E+00  0.1388889E+00  0.0000000E+00  0.4629630E-02
    1      -21.087043
    2      -19.647878
    3      -11.752402
    4       -9.603997
    5       -9.115924
    6       -8.979441
    7       -7.981931
    8       -7.326450
    9        2.113664
   10        2.352710
   11        2.929931
   12        3.338065
 
  0.4166667E+00  0.1388889E+00  0.0000000E+00  0.4629630E-02
    1      -20.895278
    2      -19.934864
    3      -11.260164
    4       -9.488614
    5       -9.391823
    6       -8.755279
    7       -8.299527
    8       -7.649601
    9        2.377550
   10        2.870383
   11        3.195356
   12        3.608931
 
  0.4583333E+00  0.1388889E+00  0.0000000E+00  0.4629630E-02
    1      -20.683939
    2      -20.203448
    3      -10.781758
    4       -9.891239
    5       -9.154844
    6       -8.606042
    7       -8.509369
    8       -7.955461
    9        2.668961
   10        3.333868
   11        3.380285
   12        3.487755
 
  0.5000000E+00  0.1388889E+00  0.0000000E+00  0.2314815E-02
    1      -20.453242
    2      -20.453242
    3      -10.323515
    4      -10.323515
    5       -8.892574
    6       -8.892574
    7       -8.242452
    8       -8.242452
    9        2.987781
   10        2.987781
   11        3.791753
   12        3.791753
 
  0.0000000E+00  0.1666667E+00  0.0000000E+00  0.2314815E-02
    1      -21.760459
    2      -16.596533
    3      -15.574299
    4      -10.973543
    5       -9.773089
    6       -7.472658
    7       -6.800590
    8       -4.513109
    9       -1.304792
   10        1.191435
   11        2.000179
   12        2.392322
 
  0.4166667E-01  0.1666667E+00  0.0000000E+00  0.4629630E-02
    1      -21.750265
    2      -16.756790
    3      -15.401251
    4      -10.962069
    5       -9.761018
    6       -7.522373
    7       -6.796245
    8       -4.586630
    9       -1.220149
   10        1.205313
   11        2.014212
   12        2.406573
 
  0.8333333E-01  0.1666667E+00  0.0000000E+00  0.4629630E-02
    1      -21.719688
    2      -17.085419
    3      -15.034470
    4      -10.927590
    5       -9.724822
    6       -7.656296
    7       -6.798131
    8       -4.786681
    9       -0.986900
   10        1.246954
   11        2.056306
   12        2.449325
 
  0.1250000E+00  0.1666667E+00  0.0000000E+00  0.4629630E-02
    1      -21.668752
    2      -17.453756
    3      -14.603291
    4      -10.869928
    5       -9.664562
    6       -7.847630
    7       -6.831884
    8       -5.071039
    9       -0.647783
   10        1.316380
   11        2.126447
   12        2.520583
 
  0.1666667E+00  0.1666667E+00  0.0000000E+00  0.4629630E-02
    1      -21.597496
    2      -17.825712
    3      -14.144973
    4      -10.788751
    5       -9.580337
    6       -8.076515
    7       -6.914768
    8       -5.402445
    9       -0.240893
   10        1.413620
   11        2.224610
   12        2.620354
 
  0.2083333E+00  0.1666667E+00  0.0000000E+00  0.4629630E-02
    1      -21.505976
    2      -18.189949
    3      -13.672616
    4      -10.683513
    5       -9.472290
    6       -8.330604
    7       -7.054476
    8       -5.756057
    9        0.207800
   10        1.538697
   11        2.350761
   12        2.748644
 
  0.2500000E+00  0.1666667E+00  0.0000000E+00  0.4629630E-02
    1      -21.394264
    2      -18.541801
    3      -13.193357
    4      -10.553369
    5       -9.340612
    6       -8.602235
    7       -7.251674
    8       -6.116609
    9        0.681656
   10        1.691617
   11        2.504849
   12        2.905458
 
  0.2916667E+00  0.1666667E+00  0.0000000E+00  0.4629630E-02
    1      -21.262452
    2      -18.878899
    3      -12.712925
    4      -10.397060
    5       -9.185551
    6       -8.886830
    7       -7.501788
    8       -6.474687
    9        1.169686
   10        1.872360
   11        2.686810
   12        3.090797
 
  0.3333333E+00  0.1666667E+00  0.0000000E+00  0.4629630E-02
    1      -21.110651
    2      -19.199834
    3      -12.237149
    4      -10.212794
    5       -9.182288
    6       -9.007413
    7       -7.796260
    8       -6.824277
    9        1.664155
   10        2.080879
   11        2.896557
   12        3.304657
 
  0.3750000E+00  0.1666667E+00  0.0000000E+00  0.4629630E-02
    1      -20.938996
    2      -19.503675
    3      -11.772533
    4       -9.998255
    5       -9.488876
    6       -8.806581
    7       -8.123487
    8       -7.161364
    9        2.159235
   10        2.317102
   11        3.133976
   12        3.547031
 
  0.4166667E+00  0.1666667E+00  0.0000000E+00  0.4629630E-02
    1      -20.747649
    2      -19.789752
    3      -11.326164
    4       -9.809301
    5       -9.751015
    6       -8.583527
    7       -8.469554
    8       -7.483150
    9        2.580939
   10        2.650261
   11        3.398908
   12        3.817908
 
  0.4583333E+00  0.1666667E+00  0.0000000E+00  0.4629630E-02
    1      -20.536801
    2      -20.057555
    3      -10.904665
    4      -10.148455
    5       -9.469790
    6       -8.819051
    7       -8.338833
    8       -7.787607
    9        2.872281
   10        3.133287
   11        3.536944
   12        3.691027
 
  0.5000000E+00  0.1666667E+00  0.0000000E+00  0.2314815E-02
    1      -20.306680
    2      -20.306680
    3      -10.512164
    4      -10.512164
    5       -9.156659
    6       -9.156659
    7       -8.073223
    8       -8.073223
    9        3.191000
   10        3.191000
   11        3.604689
   12        3.604689
 