gr                                      
           1
     4.273552    0.000000    0.000000
     0.000000    2.467793    0.000000
     0.000000    0.000000   19.991759
   C 
   4
Direct configuration=     1
   0.00013158  0.00000000  0.00000000
   0.16653509  0.50000000  0.00000000
   0.50013158  0.50000000  0.00000000
   0.66653509  0.00000000  0.00000000
Direct configuration=     2
  -0.00050113 -0.00000000  0.00000000
   0.16716780  0.50000000 -0.00000000
   0.49949887  0.50000000  0.00000000
   0.66716780  0.00000000 -0.00000000
Direct configuration=     3
   0.00000594 -0.00000000  0.00000000
   0.16666073  0.50000000 -0.00000000
   0.50000594  0.50000000  0.00000000
   0.66666073  0.00000000 -0.00000000
Direct configuration=     4
   0.00000479 -0.00000000  0.00000000
   0.16666188  0.50000000 -0.00000000
   0.50000479  0.50000000  0.00000000
   0.66666188  0.00000000 -0.00000000
Direct configuration=     5
   0.00000480  0.00000000  0.00000000
   0.16666187  0.50000000 -0.00000000
   0.50000480  0.50000000  0.00000000
   0.66666187  0.00000000 -0.00000000
Direct configuration=     6
   0.00000480  0.00000000  0.00000000
   0.16666187  0.50000000 -0.00000000
   0.50000480  0.50000000  0.00000000
   0.66666187  0.00000000 -0.00000000
Direct configuration=     7
   0.00000480  0.00000000  0.00000000
   0.16666187  0.50000000 -0.00000000
   0.50000480  0.50000000  0.00000000
   0.66666187  0.00000000 -0.00000000
