    4    4  400    1
  0.5270948E+02  0.4316846E-09  0.2462762E-09  0.1983169E-08  0.5000000E-15
  1.000000000000000E-004
  CAR 
 gr                                      
     16    247     12
 
  0.0000000E+00  0.0000000E+00  0.0000000E+00  0.1157407E-02
    1      -22.183267
    2      -17.121187
    3      -15.918138
    4      -10.304582
    5       -9.010404
    6       -5.879132
    7       -5.760687
    8       -5.204771
    9       -1.122559
   10        0.532257
   11        1.332176
   12        1.719284
 
  0.4166667E-01  0.0000000E+00  0.0000000E+00  0.2314815E-02
    1      -22.173222
    2      -17.264313
    3      -15.759862
    4      -10.292614
    5       -9.000525
    6       -5.922536
    7       -5.782210
    8       -5.267987
    9       -1.043448
   10        0.545867
   11        1.345972
   12        1.733250
 
  0.8333333E-01  0.0000000E+00  0.0000000E+00  0.2314815E-02
    1      -22.143090
    2      -17.574159
    3      -15.404647
    4      -10.256728
    5       -8.970936
    6       -6.050841
    7       -5.845619
    8       -5.444021
    9       -0.819892
   10        0.586701
   11        1.387356
   12        1.775147
 
  0.1250000E+00  0.0000000E+00  0.0000000E+00  0.2314815E-02
    1      -22.092892
    2      -17.931876
    3      -14.971588
    4      -10.196982
    5       -8.921793
    6       -6.258682
    7       -5.947618
    8       -5.702172
    9       -0.483091
   10        0.654771
   11        1.456316
   12        1.844978
 
  0.1666667E+00  0.0000000E+00  0.0000000E+00  0.2314815E-02
    1      -22.022662
    2      -18.297229
    3      -14.501340
    4      -10.113473
    5       -8.853356
    6       -6.538116
    7       -6.083285
    8       -6.011349
    9       -0.064978
   10        0.750087
   11        1.552827
   12        1.942746
 
  0.2083333E+00  0.0000000E+00  0.0000000E+00  0.2314815E-02
    1      -21.932450
    2      -18.656615
    3      -14.008112
    4      -10.006344
    5       -8.766001
    6       -6.879750
    7       -6.347906
    8       -6.246720
    9        0.409591
   10        0.872655
   11        1.676852
   12        2.068451
 
  0.2500000E+00  0.0000000E+00  0.0000000E+00  0.2314815E-02
    1      -21.822318
    2      -19.004398
    3      -13.498340
    4       -9.875783
    5       -8.660233
    6       -7.273762
    7       -6.695808
    8       -6.431666
    9        0.922952
   10        1.022469
   11        1.828334
   12        2.222095
 
  0.2916667E+00  0.0000000E+00  0.0000000E+00  0.2314815E-02
    1      -21.692349
    2      -19.337793
    3      -12.975834
    4       -9.722036
    5       -8.536700
    6       -7.710657
    7       -7.044516
    8       -6.632006
    9        1.199508
   10        1.462435
   11        2.007186
   12        2.403674
 
  0.3333333E+00  0.0000000E+00  0.0000000E+00  0.2314815E-02
    1      -21.542641
    2      -19.655216
    3      -12.443455
    4       -9.545416
    5       -8.396215
    6       -8.181724
    7       -7.387055
    8       -6.842072
    9        1.403737
   10        2.018181
   11        2.213262
   12        2.613185
 
  0.3750000E+00  0.0000000E+00  0.0000000E+00  0.2314815E-02
    1      -21.373311
    2      -19.955668
    3      -11.903768
    4       -9.346315
    5       -8.679235
    6       -8.239780
    7       -7.718700
    8       -7.056816
    9        1.635107
   10        2.446301
   11        2.580899
   12        2.850619
 
  0.4166667E+00  0.0000000E+00  0.0000000E+00  0.2314815E-02
    1      -21.184502
    2      -20.238458
    3      -11.359364
    4       -9.196477
    5       -9.125225
    6       -8.068626
    7       -8.036160
    8       -7.271856
    9        1.893550
   10        2.705747
   11        3.115963
   12        3.134992
 
  0.4583333E+00  0.0000000E+00  0.0000000E+00  0.2314815E-02
    1      -20.976382
    2      -20.503083
    3      -10.813040
    4       -9.727687
    5       -8.882764
    6       -8.337076
    7       -7.884250
    8       -7.483454
    9        2.178973
   10        2.830195
   11        2.990079
   12        3.409213
 
  0.5000000E+00  0.0000000E+00  0.0000000E+00  0.1157407E-02
    1      -20.749160
    2      -20.749160
    3      -10.267943
    4      -10.267943
    5       -8.619713
    6       -8.619713
    7       -7.688463
    8       -7.688463
    9        2.491250
   10        2.491250
   11        3.292713
   12        3.292713
 
  0.0000000E+00  0.2777778E-01  0.0000000E+00  0.2314815E-02
    1      -22.169531
    2      -17.109344
    3      -15.906463
    4      -10.288218
    5       -9.072722
    6       -5.907600
    7       -5.818453
    8       -5.188113
    9       -1.125856
   10        0.550882
   11        1.351020
   12        1.738360
 
  0.4166667E-01  0.2777778E-01  0.0000000E+00  0.4629630E-02
    1      -22.159487
    2      -17.252324
    3      -15.748382
    4      -10.276253
    5       -9.062828
    6       -5.954349
    7       -5.835986
    8       -5.251461
    9       -1.046724
   10        0.564492
   11        1.364815
   12        1.752325
 
  0.8333333E-01  0.2777778E-01  0.0000000E+00  0.4629630E-02
    1      -22.129360
    2      -17.561925
    3      -15.393558
    4      -10.240380
    5       -9.033196
    6       -6.086141
    7       -5.894088
    8       -5.427801
    9       -0.823197
   10        0.605327
   11        1.406197
   12        1.794223
 
  0.1250000E+00  0.2777778E-01  0.0000000E+00  0.4629630E-02
    1      -22.079169
    2      -17.919419
    3      -14.960971
    4      -10.180654
    5       -8.983976
    6       -6.293776
    7       -5.993603
    8       -5.686272
    9       -0.486635
   10        0.673398
   11        1.475153
   12        1.864055
 
  0.1666667E+00  0.2777778E-01  0.0000000E+00  0.4629630E-02
    1      -22.008950
    2      -18.284582
    3      -14.491273
    4      -10.097173
    5       -8.915424
    6       -6.570213
    7       -6.129085
    8       -5.995691
    9       -0.069064
   10        0.768718
   11        1.571659
   12        1.961824
 
  0.2083333E+00  0.2777778E-01  0.0000000E+00  0.4629630E-02
    1      -21.918752
    2      -18.643804
    3      -13.998692
    4       -9.990080
    5       -8.827908
    6       -6.907390
    7       -6.332393
    8       -6.293645
    9        0.404639
   10        0.891293
   11        1.695677
   12        2.087531
 
  0.2500000E+00  0.2777778E-01  0.0000000E+00  0.4629630E-02
    1      -21.808639
    2      -18.991448
    3      -13.489681
    4       -9.859563
    5       -8.721925
    6       -7.296428
    7       -6.680357
    8       -6.480341
    9        0.916831
   10        1.041114
   11        1.847153
   12        2.241176
 
  0.2916667E+00  0.2777778E-01  0.0000000E+00  0.4629630E-02
    1      -21.678692
    2      -19.324722
    3      -12.968076
    4       -9.705870
    5       -8.598108
    6       -7.728408
    7       -7.029067
    8       -6.682637
    9        1.218162
   10        1.454885
   11        2.025999
   12        2.422758
 
  0.3333333E+00  0.2777778E-01  0.0000000E+00  0.4629630E-02
    1      -21.529010
    2      -19.642041
    3      -12.436766
    4       -9.529310
    5       -8.457254
    6       -8.194922
    7       -7.371567
    8       -6.894628
    9        1.422402
   10        2.009014
   11        2.232071
   12        2.632273
 
  0.3750000E+00  0.2777778E-01  0.0000000E+00  0.4629630E-02
    1      -21.359713
    2      -19.942403
    3      -11.898352
    4       -9.330277
    5       -8.688378
    6       -8.300350
    7       -7.703149
    8       -7.111141
    9        1.653785
   10        2.465113
   11        2.570132
   12        2.869711
 
  0.4166667E+00  0.2777778E-01  0.0000000E+00  0.4629630E-02
    1      -21.170940
    2      -20.225115
    3      -11.355463
    4       -9.202099
    5       -9.109261
    6       -8.128604
    7       -8.020531
    8       -7.327738
    9        1.912242
   10        2.724572
   11        3.123718
   12        3.135062
 
  0.4583333E+00  0.2777778E-01  0.0000000E+00  0.4629630E-02
    1      -20.962864
    2      -20.489672
    3      -10.810945
    4       -9.730296
    5       -8.866880
    6       -8.321363
    7       -7.943487
    8       -7.540666
    9        2.197683
   10        2.848969
   11        3.008931
   12        3.428304
 
  0.5000000E+00  0.2777778E-01  0.0000000E+00  0.2314815E-02
    1      -20.735691
    2      -20.735691
    3      -10.267999
    4      -10.267999
    5       -8.603913
    6       -8.603913
    7       -7.746786
    8       -7.746786
    9        2.509984
   10        2.509984
   11        3.311444
   12        3.311444
 
  0.0000000E+00  0.5555556E-01  0.0000000E+00  0.2314815E-02
    1      -22.128333
    2      -17.073819
    3      -15.871586
    4      -10.239157
    5       -9.254662
    6       -5.992422
    7       -5.987088
    8       -5.138159
    9       -1.136569
   10        0.606757
   11        1.407545
   12        1.795588
 
  0.4166667E-01  0.5555556E-01  0.0000000E+00  0.4629630E-02
    1      -22.118293
    2      -17.216368
    3      -15.714083
    4      -10.227205
    5       -9.244720
    6       -6.065609
    7       -5.976291
    8       -5.201914
    9       -1.057370
   10        0.620367
   11        1.421338
   12        1.809554
 
  0.8333333E-01  0.5555556E-01  0.0000000E+00  0.4629630E-02
    1      -22.088179
    2      -17.525242
    3      -15.360436
    4      -10.191369
    5       -9.214942
    6       -6.205828
    7       -6.020618
    8       -5.379195
    9       -0.833922
   10        0.661204
   11        1.462712
   12        1.851452
 
  0.1250000E+00  0.5555556E-01  0.0000000E+00  0.4629630E-02
    1      -22.038012
    2      -17.882071
    3      -14.929282
    4      -10.131704
    5       -9.165467
    6       -6.410152
    7       -6.115494
    8       -5.638649
    9       -0.498084
   10        0.729279
   11        1.531656
   12        1.921285
 
  0.1666667E+00  0.5555556E-01  0.0000000E+00  0.4629630E-02
    1      -21.967826
    2      -18.246660
    3      -14.461266
    4      -10.048310
    5       -9.096534
    6       -6.675856
    7       -6.252253
    8       -5.948807
    9       -0.082170
   10        0.824607
   11        1.628145
   12        2.019056
 
  0.2083333E+00  0.5555556E-01  0.0000000E+00  0.4629630E-02
    1      -21.877671
    2      -18.605392
    3      -13.970664
    4       -9.941328
    5       -9.008488
    6       -6.998212
    7       -6.421699
    8       -6.285947
    9        0.388885
   10        0.947194
   11        1.752144
   12        2.144766
 
  0.2500000E+00  0.5555556E-01  0.0000000E+00  0.4629630E-02
    1      -21.767612
    2      -18.952614
    3      -13.463996
    4       -9.810947
    5       -8.901791
    6       -7.370944
    7       -6.634098
    8       -6.615058
    9        0.897505
   10        1.097034
   11        1.903598
   12        2.298417
 
  0.2916667E+00  0.5555556E-01  0.0000000E+00  0.4629630E-02
    1      -21.637733
    2      -19.285526
    3      -12.945171
    4       -9.657413
    5       -8.777036
    6       -7.786880
    7       -6.982809
    8       -6.824513
    9        1.274105
   10        1.431180
   11        2.082423
   12        2.480006
 
  0.3333333E+00  0.5555556E-01  0.0000000E+00  0.4629630E-02
    1      -21.488132
    2      -19.602532
    3      -12.417173
    4       -9.481037
    5       -8.634968
    6       -8.238603
    7       -7.325189
    8       -7.043388
    9        1.478371
   10        1.980335
   11        2.288483
   12        2.689530
 
  0.3750000E+00  0.5555556E-01  0.0000000E+00  0.4629630E-02
    1      -21.318928
    2      -19.902622
    3      -11.882715
    4       -9.282210
    5       -8.718959
    6       -8.476509
    7       -7.656574
    8       -7.266112
    9        1.709784
   10        2.521531
   11        2.536416
   12        2.926981
 
  0.4166667E+00  0.5555556E-01  0.0000000E+00  0.4629630E-02
    1      -21.130267
    2      -20.185101
    3      -11.344559
    4       -9.221365
    5       -9.061421
    6       -8.302794
    7       -7.973717
    8       -7.488091
    9        1.968274
   10        2.781033
   11        3.087536
   12        3.192348
 
  0.4583333E+00  0.5555556E-01  0.0000000E+00  0.4629630E-02
    1      -20.922320
    2      -20.449456
    3      -10.805710
    4       -9.739944
    5       -8.819285
    6       -8.274290
    7       -8.115207
    8       -7.705562
    9        2.253756
   10        2.905184
   11        3.065481
   12        3.486117
 
  0.5000000E+00  0.5555556E-01  0.0000000E+00  0.2314815E-02
    1      -20.695299
    2      -20.695299
    3      -10.269548
    4      -10.269548
    5       -8.556576
    6       -8.556576
    7       -7.915442
    8       -7.915442
    9        2.566113
   10        2.566113
   11        3.367567
   12        3.367567
 
  0.0000000E+00  0.8333333E-01  0.0000000E+00  0.2314815E-02
    1      -22.059708
    2      -17.014623
    3      -15.813971
    4      -10.157505
    5       -9.542586
    6       -6.254033
    7       -6.131870
    8       -5.054972
    9       -1.157161
   10        0.699889
   11        1.501729
   12        1.890971
 
  0.4166667E-01  0.8333333E-01  0.0000000E+00  0.4629630E-02
    1      -22.049675
    2      -17.156481
    3      -15.657421
    4      -10.145574
    5       -9.532548
    6       -6.306258
    7       -6.139010
    8       -5.119446
    9       -1.077829
   10        0.713498
   11        1.515517
   12        1.904936
 
  0.8333333E-01  0.8333333E-01  0.0000000E+00  0.4629630E-02
    1      -22.019584
    2      -17.464167
    3      -15.305752
    4      -10.109801
    5       -9.502476
    6       -6.439149
    7       -6.182081
    8       -5.298382
    9       -0.854487
   10        0.754332
   11        1.556878
   12        1.946835
 
  0.1250000E+00  0.8333333E-01  0.0000000E+00  0.4629630E-02
    1      -21.969456
    2      -17.819893
    3      -14.877048
    4      -10.050242
    5       -9.452489
    6       -6.632574
    7       -6.275018
    8       -5.559548
    9       -0.519877
   10        0.822406
   11        1.625798
   12        2.016668
 
  0.1666667E+00  0.8333333E-01  0.0000000E+00  0.4629630E-02
    1      -21.899325
    2      -18.183528
    3      -14.411942
    4       -9.966996
    5       -9.382796
    6       -6.879380
    7       -6.415271
    8       -5.870978
    9       -0.106819
   10        0.917737
   11        1.722257
   12        2.114440
 
  0.2083333E+00  0.8333333E-01  0.0000000E+00  0.4629630E-02
    1      -21.809243
    2      -18.541438
    3      -13.924796
    4       -9.860204
    5       -9.293690
    6       -7.175803
    7       -6.594317
    8       -6.208863
    9        0.359668
   10        1.040332
   11        1.846218
   12        2.240154
 
  0.2500000E+00  0.8333333E-01  0.0000000E+00  0.4629630E-02
    1      -21.699277
    2      -18.887953
    3      -13.422244
    4       -9.730056
    5       -9.185569
    6       -7.518676
    7       -6.801550
    8       -6.557319
    9        0.862118
   10        1.190187
   11        1.997631
   12        2.393811
 
  0.2916667E+00  0.8333333E-01  0.0000000E+00  0.4629630E-02
    1      -21.569509
    2      -19.220256
    3      -12.908345
    4       -9.576796
    5       -9.058939
    6       -7.904168
    7       -7.026626
    8       -6.906021
    9        1.367280
   10        1.388220
   11        2.176416
   12        2.575409
 
  0.3333333E+00  0.8333333E-01  0.0000000E+00  0.4629630E-02
    1      -21.420041
    2      -19.536736
    3      -12.386264
    4       -9.400736
    5       -8.914435
    6       -8.327321
    7       -7.260817
    8       -7.248181
    9        1.571574
   10        1.928707
   11        2.382449
   12        2.784944
 
  0.3750000E+00  0.8333333E-01  0.0000000E+00  0.4629630E-02
    1      -21.250996
    2      -19.836372
    3      -11.858935
    4       -9.202265
    5       -8.782284
    6       -8.752842
    7       -7.579218
    8       -7.497353
    9        1.803017
   10        2.475709
   11        2.615501
   12        3.022410
 
  0.4166667E+00  0.8333333E-01  0.0000000E+00  0.4629630E-02
    1      -21.062520
    2      -20.118458
    3      -11.329395
    4       -9.262881
    5       -8.981867
    6       -8.575123
    7       -7.895942
    8       -7.731163
    9        2.061540
   10        2.875079
   11        3.020234
   12        3.287797
 
  0.4583333E+00  0.8333333E-01  0.0000000E+00  0.4629630E-02
    1      -20.854791
    2      -20.382473
    3      -10.800976
    4       -9.763108
    5       -8.740153
    6       -8.382458
    7       -8.196062
    8       -7.958445
    9        2.347058
   10        2.998606
   11        3.159705
   12        3.524410
 
  0.5000000E+00  0.8333333E-01  0.0000000E+00  0.2314815E-02
    1      -20.628023
    2      -20.628023
    3      -10.277444
    4      -10.277444
    5       -8.477891
    6       -8.477891
    7       -8.176299
    8       -8.176299
    9        2.659462
   10        2.659462
   11        3.460755
   12        3.460756
 
  0.0000000E+00  0.1111111E+00  0.0000000E+00  0.2314815E-02
    1      -21.963716
    2      -16.931778
    3      -15.734501
    4      -10.043436
    5       -9.917521
    6       -6.602163
    7       -6.323121
    8       -4.938658
    9       -1.191724
   10        0.830283
   11        1.633533
   12        2.024510
 
  0.4166667E-01  0.1111111E+00  0.0000000E+00  0.4629630E-02
    1      -21.953694
    2      -17.072728
    3      -15.579255
    4      -10.031536
    5       -9.907313
    6       -6.649412
    7       -6.331269
    8       -5.004235
    9       -1.112147
   10        0.843888
   11        1.647314
   12        2.038475
 
  0.8333333E-01  0.1111111E+00  0.0000000E+00  0.4629630E-02
    1      -21.923636
    2      -17.378805
    3      -15.230399
    4       -9.995856
    5       -9.876719
    6       -6.776219
    7       -6.369097
    8       -5.185683
    9       -0.888873
   10        0.884710
   11        1.688652
   12        2.080371
 
  0.1250000E+00  0.1111111E+00  0.0000000E+00  0.4629630E-02
    1      -21.873562
    2      -17.733002
    3      -14.805285
    4       -9.936452
    5       -9.825825
    6       -6.961229
    7       -6.453331
    8       -5.449409
    9       -0.556009
   10        0.952769
   11        1.757535
   12        2.150203
 
  0.1666667E+00  0.1111111E+00  0.0000000E+00  0.4629630E-02
    1      -21.803509
    2      -18.095296
    3      -14.344521
    4       -9.853422
    5       -9.754775
    6       -7.192006
    7       -6.588816
    8       -5.762711
    9       -0.147120
   10        1.048084
   11        1.853943
   12        2.247974
 
  0.2083333E+00  0.1111111E+00  0.0000000E+00  0.4629630E-02
    1      -21.713530
    2      -18.452046
    3      -13.862602
    4       -9.746909
    5       -9.663775
    6       -7.462244
    7       -6.771705
    8       -6.101667
    9        0.312671
   10        1.170670
   11        1.977840
   12        2.373690
 
  0.2500000E+00  0.1111111E+00  0.0000000E+00  0.4629630E-02
    1      -21.603692
    2      -18.797561
    3      -13.366362
    4       -9.617101
    5       -9.553095
    6       -7.769207
    7       -6.992714
    8       -6.450539
    9        0.806077
   10        1.320523
   11        2.129181
   12        2.527350
 
  0.2916667E+00  0.1111111E+00  0.0000000E+00  0.4629630E-02
    1      -21.474081
    2      -19.129001
    3      -12.860117
    4       -9.464244
    5       -9.423070
    6       -8.112160
    7       -7.239603
    8       -6.799193
    9        1.321068
   10        1.497622
   11        2.307893
   12        2.708955
 
  0.3333333E+00  0.1111111E+00  0.0000000E+00  0.4629630E-02
    1      -21.324801
    2      -19.444738
    3      -12.347361
    4       -9.288648
    5       -9.274109
    6       -8.490709
    7       -7.499722
    8       -7.141003
    9        1.701927
   10        1.848755
   11        2.513867
   12        2.918500
 
  0.3750000E+00  0.1111111E+00  0.0000000E+00  0.4629630E-02
    1      -21.155979
    2      -19.743731
    3      -11.831452
    4       -9.106701
    5       -9.090698
    6       -8.903240
    7       -7.762294
    8       -7.471507
    9        1.933383
   10        2.381942
   11        2.746909
   12        3.155980
 
  0.4166667E+00  0.1111111E+00  0.0000000E+00  0.4629630E-02
    1      -20.967765
    2      -20.025262
    3      -11.315954
    4       -9.346226
    5       -8.921428
    6       -8.870877
    7       -8.019547
    8       -7.787596
    9        2.191917
   10        2.913791
   11        3.006598
   12        3.421384
 
  0.4583333E+00  0.1111111E+00  0.0000000E+00  0.4629630E-02
    1      -20.760343
    2      -20.288798
    3      -10.804855
    4       -9.814613
    5       -8.718995
    6       -8.629787
    7       -8.266538
    8       -8.087039
    9        2.477441
   10        3.129000
   11        3.291547
   12        3.431645
 
  0.5000000E+00  0.1111111E+00  0.0000000E+00  0.2314815E-02
    1      -20.533932
    2      -20.533932
    3      -10.302696
    4      -10.302696
    5       -8.500295
    6       -8.500295
    7       -8.368186
    8       -8.368186
    9        2.789848
   10        2.789848
   11        3.589414
   12        3.589414
 
  0.0000000E+00  0.1388889E+00  0.0000000E+00  0.2314815E-02
    1      -21.840446
    2      -16.825313
    3      -15.634664
    4      -10.358577
    5       -9.897206
    6       -7.013293
    7       -6.562357
    8       -4.789367
    9       -1.245875
   10        0.997937
   11        1.802900
   12        2.196208
 
  0.4166667E-01  0.1388889E+00  0.0000000E+00  0.4629630E-02
    1      -21.830438
    2      -16.965207
    3      -15.481050
    4      -10.348079
    5       -9.885348
    6       -7.060014
    7       -6.566350
    8       -4.856552
    9       -1.165857
   10        1.011533
   11        1.816669
   12        2.210172
 
  0.8333333E-01  0.1388889E+00  0.0000000E+00  0.4629630E-02
    1      -21.800421
    2      -17.269316
    3      -15.135922
    4      -10.316590
    5       -9.849793
    6       -7.186379
    7       -6.591167
    8       -5.041614
    9       -0.942466
   10        1.052332
   11        1.857971
   12        2.252064
 
  0.1250000E+00  0.1388889E+00  0.0000000E+00  0.4629630E-02
    1      -21.750417
    2      -17.621571
    3      -14.715777
    4      -10.264132
    5       -9.790599
    6       -7.369378
    7       -6.656837
    8       -5.308944
    9       -0.611829
   10        1.120355
   11        1.926795
   12        2.321890
 
  0.1666667E+00  0.1388889E+00  0.0000000E+00  0.4629630E-02
    1      -21.680466
    2      -17.982133
    3      -14.261190
    4      -10.190733
    5       -9.707865
    6       -7.592960
    7       -6.774129
    8       -5.624813
    9       -0.208531
   10        1.215628
   11        2.023118
   12        2.419656
 
  0.2083333E+00  0.1388889E+00  0.0000000E+00  0.4629630E-02
    1      -21.590620
    2      -18.337374
    3      -13.786869
    4      -10.096421
    5       -9.601731
    6       -7.847702
    7       -6.944779
    8       -5.965186
    9        0.242212
   10        1.338171
   11        2.146909
   12        2.545366
 
  0.2500000E+00  0.1388889E+00  0.0000000E+00  0.4629630E-02
    1      -21.480948
    2      -18.681584
    3      -13.299993
    4       -9.981209
    5       -9.472389
    6       -8.128513
    7       -7.164027
    8       -6.314561
    9        0.723409
   10        1.487989
   11        2.298124
   12        2.699025
 
  0.2916667E+00  0.1388889E+00  0.0000000E+00  0.4629630E-02
    1      -21.351540
    2      -19.011897
    3      -12.805352
    4       -9.845076
    5       -9.320084
    6       -8.433555
    7       -7.422327
    8       -6.663085
    9        1.223429
   10        1.665061
   11        2.476699
   12        2.880632
 
  0.3333333E+00  0.1388889E+00  0.0000000E+00  0.4629630E-02
    1      -21.202503
    2      -19.326661
    3      -12.307073
    4       -9.687938
    5       -9.145122
    6       -8.763592
    7       -7.706831
    8       -7.004358
    9        1.733834
   10        1.869346
   11        2.682543
   12        3.090183
 
  0.3750000E+00  0.1388889E+00  0.0000000E+00  0.4629630E-02
    1      -21.033969
    2      -19.624815
    3      -11.809339
    4       -9.509624
    5       -9.120991
    6       -8.947890
    7       -8.003193
    8       -7.334084
    9        2.100781
   10        2.248037
   11        2.915514
   12        3.327673
 
  0.4166667E+00  0.1388889E+00  0.0000000E+00  0.4629630E-02
    1      -20.846096
    2      -19.905621
    3      -11.316772
    4       -9.507992
    5       -9.309865
    6       -8.728863
    7       -8.297909
    8       -7.649269
    9        2.359290
   10        2.760456
   11        3.175317
   12        3.593091
 
  0.4583333E+00  0.1388889E+00  0.0000000E+00  0.4629630E-02
    1      -20.639073
    2      -20.168533
    3      -10.834608
    4       -9.924783
    5       -9.088359
    6       -8.580601
    7       -8.488636
    8       -7.947759
    9        2.644775
   10        3.265485
   11        3.296196
   12        3.460873
 
  0.5000000E+00  0.1388889E+00  0.0000000E+00  0.2314815E-02
    1      -20.413128
    2      -20.413128
    3      -10.368646
    4      -10.368646
    5       -8.845016
    6       -8.845016
    7       -8.227954
    8       -8.227954
    9        2.957124
   10        2.957124
   11        3.716741
   12        3.716742
 
  0.0000000E+00  0.1666667E+00  0.0000000E+00  0.2314815E-02
    1      -21.690013
    2      -16.695267
    3      -15.516953
    4      -10.845124
    5       -9.719152
    6       -7.470563
    7       -6.844928
    8       -4.607300
    9       -1.326515
   10        1.202836
   11        2.009748
   12        2.406066
 
  0.4166667E-01  0.1666667E+00  0.0000000E+00  0.4629630E-02
    1      -21.680023
    2      -16.834065
    3      -15.365284
    4      -10.834126
    5       -9.707350
    6       -7.518203
    7       -6.842853
    8       -4.676808
    9       -1.245676
   10        1.216420
   11        2.023497
   12        2.420028
 
  0.8333333E-01  0.1666667E+00  0.0000000E+00  0.4629630E-02
    1      -21.650058
    2      -17.135942
    3      -15.024984
    4      -10.801094
    5       -9.671960
    6       -7.647003
    7       -6.850344
    8       -4.866985
    9       -1.021676
   10        1.257182
   11        2.064741
   12        2.461914
 
  0.1250000E+00  0.1666667E+00  0.0000000E+00  0.4629630E-02
    1      -21.600142
    2      -17.485864
    3      -14.611677
    4      -10.745917
    5       -9.613043
    6       -7.831995
    7       -6.890941
    8       -5.139256
    9       -0.693589
   10        1.325144
   11        2.133467
   12        2.531729
 
  0.1666667E+00  0.1666667E+00  0.0000000E+00  0.4629630E-02
    1      -21.530314
    2      -17.844292
    3      -14.165925
    4      -10.668380
    5       -9.530696
    6       -8.054556
    7       -6.980273
    8       -5.458514
    9       -0.297347
   10        1.420340
   11        2.229649
   12        2.629481
 
  0.2083333E+00  0.1666667E+00  0.0000000E+00  0.4629630E-02
    1      -21.440629
    2      -18.197654
    3      -13.702822
    4      -10.568133
    5       -9.425064
    6       -8.303108
    7       -7.124835
    8       -5.800661
    9        0.141840
   10        1.542798
   11        2.353255
   12        2.755177
 
  0.2500000E+00  0.1666667E+00  0.0000000E+00  0.4629630E-02
    1      -21.331162
    2      -18.540231
    3      -13.230207
    4      -10.444631
    5       -9.296336
    6       -8.570588
    7       -7.324306
    8       -6.150574
    9        0.607475
   10        1.692531
   11        2.504237
   12        2.908824
 
  0.2916667E+00  0.1666667E+00  0.0000000E+00  0.4629630E-02
    1      -21.202004
    2      -18.869134
    3      -12.753817
    4      -10.297048
    5       -9.144759
    6       -8.853036
    7       -7.573235
    8       -6.498803
    9        1.088517
   10        1.869528
   11        2.682532
   12        3.090425
 
  0.3333333E+00  0.1666667E+00  0.0000000E+00  0.4629630E-02
    1      -21.053268
    2      -19.182681
    3      -12.279060
    4      -10.124198
    5       -9.149070
    6       -8.970640
    7       -7.862231
    8       -6.839263
    9        1.577120
   10        2.073746
   11        2.888060
   12        3.299975
 
  0.3750000E+00  0.1666667E+00  0.0000000E+00  0.4629630E-02
    1      -20.885092
    2      -19.479786
    3      -11.811755
    4       -9.924496
    5       -9.459763
    6       -8.774361
    7       -8.178922
    8       -7.167877
    9        2.067322
   10        2.305118
   11        3.120713
   12        3.537469
 
  0.4166667E+00  0.1666667E+00  0.0000000E+00  0.4629630E-02
    1      -20.697642
    2      -19.759687
    3      -11.358331
    4       -9.788452
    5       -9.696124
    6       -8.556394
    7       -8.508896
    8       -7.481802
    9        2.554310
   10        2.563554
   11        3.380353
   12        3.802895
 
  0.4583333E+00  0.1666667E+00  0.0000000E+00  0.4629630E-02
    1      -20.491114
    2      -20.021820
    3      -10.925390
    4      -10.139906
    5       -9.437719
    6       -8.837062
    7       -8.317325
    8       -7.778981
    9        2.848948
   10        3.033989
   11        3.500071
   12        3.666774
 
  0.5000000E+00  0.1666667E+00  0.0000000E+00  0.2314815E-02
    1      -20.265746
    2      -20.265746
    3      -10.518410
    4      -10.518410
    5       -9.149858
    6       -9.149858
    7       -8.057881
    8       -8.057881
    9        3.161171
   10        3.161171
   11        3.502697
   12        3.502697
 