       N       E                     dE             d eps       ncg     rms          rms(c)
DAV:   1     0.188483189702E+03    0.18848E+03   -0.10627E+04  5928   0.275E+03
DAV:   2    -0.979889107069E+01   -0.19828E+03   -0.17692E+03 10460   0.260E+02
DAV:   3    -0.382797384592E+02   -0.28481E+02   -0.27714E+02  7356   0.118E+02    0.725E+00
RMM:   4    -0.376502855523E+02    0.62945E+00   -0.93779E+00  5928   0.262E+01    0.419E+00
RMM:   5    -0.369093343280E+02    0.74095E+00   -0.27840E+00  5931   0.114E+01    0.720E-01
RMM:   6    -0.369115353565E+02   -0.22010E-02   -0.88274E-02  6373   0.203E+00    0.515E-01
RMM:   7    -0.369022146736E+02    0.93207E-02   -0.32531E-02  5944   0.157E+00    0.338E-01
RMM:   8    -0.368968570549E+02    0.53576E-02   -0.71472E-03  5936   0.557E-01    0.136E-01
RMM:   9    -0.368965169201E+02    0.34013E-03   -0.20935E-02  5930   0.854E-01    0.159E-01
RMM:  10    -0.368963477282E+02    0.16919E-03   -0.24581E-03  5932   0.350E-01    0.279E-02
RMM:  11    -0.368989095467E+02   -0.25618E-02   -0.97831E-04  5936   0.193E-01    0.465E-02
RMM:  12    -0.368993430744E+02   -0.43353E-03   -0.35218E-04  5943   0.985E-02    0.626E-03
RMM:  13    -0.368996309150E+02   -0.28784E-03   -0.19125E-04  6016   0.419E-02    0.356E-03
RMM:  14    -0.369006633855E+02   -0.10325E-02   -0.16487E-04  5963   0.179E-02    0.796E-03
RMM:  15    -0.369015180403E+02   -0.85465E-03   -0.64273E-03  6242   0.160E-02    0.843E-03
RMM:  16    -0.369128774264E+02   -0.11359E-01   -0.10263E-01  5945   0.157E-02    0.171E-02
RMM:  17    -0.369140919960E+02   -0.12146E-02   -0.53990E-03  5931   0.122E-02    0.185E-02
RMM:  18    -0.369141475417E+02   -0.55546E-04   -0.26597E-04  5930   0.250E-02    0.120E-02
RMM:  19    -0.369141495615E+02   -0.20197E-05   -0.17192E-06  6021   0.600E-03    0.961E-03
RMM:  20    -0.369141497720E+02   -0.21054E-06   -0.51460E-07  5970   0.142E-03    0.927E-03
RMM:  21    -0.369141516669E+02   -0.18949E-05   -0.67398E-07  5928   0.554E-03    0.672E-03
RMM:  22    -0.369141553468E+02   -0.36799E-05   -0.26604E-06  5929   0.106E-02    0.366E-03
RMM:  23    -0.369141593063E+02   -0.39595E-05   -0.43232E-06  5928   0.132E-02    0.548E-03
RMM:  24    -0.369141593703E+02   -0.63993E-07   -0.16588E-07  6347   0.289E-03    0.558E-03
RMM:  25    -0.369141591956E+02    0.17464E-06   -0.66969E-09  5937   0.729E-04    0.528E-03
RMM:  26    -0.369141590023E+02    0.19330E-06   -0.37214E-08  5928   0.131E-03    0.476E-03
RMM:  27    -0.369141586779E+02    0.32443E-06   -0.77230E-08  5928   0.183E-03    0.397E-03
RMM:  28    -0.369141585925E+02    0.85413E-07   -0.12888E-08  5971   0.773E-04    0.367E-03
RMM:  29    -0.369141582101E+02    0.38236E-06   -0.22270E-07  5928   0.307E-03    0.217E-03
RMM:  30    -0.369141580264E+02    0.18372E-06   -0.18459E-07  5928   0.279E-03    0.101E-03
RMM:  31    -0.369141579059E+02    0.12052E-06   -0.64203E-08  5948   0.168E-03    0.452E-04
RMM:  32    -0.369141579005E+02    0.54384E-08   -0.23121E-08  5970   0.101E-03    0.227E-04
RMM:  33    -0.369141579755E+02   -0.75013E-07   -0.40601E-09  6125   0.435E-04    0.159E-04
RMM:  34    -0.369141580141E+02   -0.38646E-07   -0.94196E-10  5910   0.208E-04    0.375E-05
RMM:  35    -0.369141580156E+02   -0.14737E-08   -0.29358E-10  4492   0.114E-04    0.885E-06
RMM:  36    -0.369141580143E+02    0.12448E-08   -0.36860E-12  3649   0.397E-05    0.492E-06
RMM:  37    -0.369141580140E+02    0.38517E-09   -0.83472E-12  3169   0.340E-05    0.553E-06
RMM:  38    -0.369141580140E+02   -0.47407E-10   -0.58892E-12  2906   0.282E-05
   1 F= -.36914158E+02 E0= -.36914144E+02  d E =-.369142E+02
       N       E                     dE             d eps       ncg     rms          rms(c)
DAV:   1    -0.369141576603E+02    0.35370E-06   -0.31906E-05  6904   0.531E-02    0.111E-03
RMM:   2    -0.369141576759E+02   -0.15678E-07   -0.50727E-07  5942   0.635E-03    0.794E-04
RMM:   3    -0.369141576588E+02    0.17115E-07   -0.88491E-08  5958   0.240E-03    0.205E-04
RMM:   4    -0.369141576577E+02    0.11130E-08   -0.56266E-09  6073   0.600E-04    0.587E-05
RMM:   5    -0.369141576575E+02    0.17894E-09   -0.39209E-10  4382   0.147E-04    0.266E-05
RMM:   6    -0.369141576576E+02   -0.33424E-10   -0.51679E-11  3729   0.717E-05
   2 F= -.36914158E+02 E0= -.36914143E+02  d E =0.356445E-06
       N       E                     dE             d eps       ncg     rms          rms(c)
DAV:   1    -0.369141580322E+02   -0.37469E-06   -0.20319E-05  6464   0.424E-02    0.887E-04
RMM:   2    -0.369141580462E+02   -0.13985E-07   -0.31764E-07  5953   0.507E-03    0.634E-04
RMM:   3    -0.369141580384E+02    0.78392E-08   -0.56349E-08  5967   0.191E-03    0.160E-04
RMM:   4    -0.369141580369E+02    0.14728E-08   -0.35492E-09  6042   0.479E-04    0.464E-05
RMM:   5    -0.369141580373E+02   -0.44247E-09   -0.26980E-10  4189   0.119E-04    0.216E-05
RMM:   6    -0.369141580371E+02    0.22294E-09   -0.33515E-11  3715   0.622E-05    0.316E-06
RMM:   7    -0.369141580374E+02   -0.24386E-09   -0.16005E-11  3641   0.472E-05    0.172E-06
RMM:   8    -0.369141580371E+02    0.25193E-09   -0.14348E-11  3194   0.363E-05    0.818E-07
RMM:   9    -0.369141580371E+02    0.89813E-11   -0.57369E-12  2814   0.283E-05
   3 F= -.36914158E+02 E0= -.36914144E+02  d E =-.379529E-06
       N       E                     dE             d eps       ncg     rms          rms(c)
DAV:   1    -0.369141580365E+02    0.61357E-09    0.56908E-09  4648   0.373E-05    0.764E-07
RMM:   2    -0.369141580372E+02   -0.71930E-09    0.22616E-13  1646   0.137E-05    0.468E-07
RMM:   3    -0.369141580374E+02   -0.15962E-09   -0.16394E-13  1566   0.137E-05    0.179E-08
RMM:   4    -0.369141580373E+02    0.11096E-09   -0.98974E-14  1514   0.136E-05    0.235E-08
RMM:   5    -0.369141580374E+02   -0.11983E-09   -0.47653E-13  1471   0.131E-05    0.109E-08
RMM:   6    -0.369141580374E+02    0.11369E-10   -0.13285E-12  1449   0.130E-05
   4 F= -.36914158E+02 E0= -.36914144E+02  d E =-.271825E-09
       N       E                     dE             d eps       ncg     rms          rms(c)
DAV:   1    -0.369141580366E+02    0.79342E-09    0.56999E-09  4600   0.164E-05    0.252E-07
RMM:   2    -0.369141580371E+02   -0.55536E-09    0.95767E-14  1252   0.607E-06    0.157E-07
RMM:   3    -0.369141580373E+02   -0.11869E-09    0.10642E-13  1258   0.599E-06    0.489E-09
RMM:   4    -0.369141580375E+02   -0.22612E-09    0.52057E-14  1114   0.595E-06    0.412E-09
RMM:   5    -0.369141580373E+02    0.16416E-09   -0.19449E-13  1188   0.603E-06    0.333E-09
RMM:   6    -0.369141580370E+02    0.31730E-09   -0.14721E-14  1123   0.591E-06    0.250E-09
RMM:   7    -0.369141580373E+02   -0.29127E-09    0.37172E-14  1175   0.592E-06    0.347E-09
RMM:   8    -0.369141580373E+02   -0.12619E-10   -0.42764E-14  1136   0.588E-06
   5 F= -.36914158E+02 E0= -.36914144E+02  d E =0.594582E-10
