<?xml version="1.0" encoding="ISO-8859-1"?>
<modeling>
 <generator>
  <i name="program" type="string">vasp </i>
  <i name="version" type="string">5.3.5  </i>
  <i name="subversion" type="string">31Mar14 (build Mar 02 2015 18:14:16) complex                          parallel </i>
  <i name="platform" type="string">LinuxIFC </i>
  <i name="date" type="string">2018 08 07 </i>
  <i name="time" type="string">16:36:46 </i>
 </generator>
 <incar>
  <i type="string" name="SYSTEM">  gr</i>
  <i type="string" name="PREC">accurate : accuracy</i>
  <i type="string" name="ALGO"> FAST.</i>
  <i type="int" name="NELM">   100</i>
  <i type="int" name="NELMDL">    -3</i>
  <i type="int" name="NELMIN">     5</i>
  <i type="int" name="IBRION">     1</i>
  <i name="EDIFF">      0.00000000</i>
  <i name="EDIFFG">     -0.00000100</i>
  <i type="int" name="NSW">   400</i>
  <i type="int" name="ISIF">     2</i>
  <i name="ENCUT">   2000.00000000</i>
  <i type="int" name="ISMEAR">     0</i>
  <i name="SIGMA">      0.05000000</i>
  <i type="int" name="NWRITE">     2</i>
  <i type="logical" name="LWAVE"> F  </i>
  <i type="logical" name="LCHARG"> F  </i>
  <i type="int" name="NELM">   100</i>
 </incar>
 <kpoints>
  <generation param="Gamma">
   <v type="int" name="divisions">      24       36        1 </v>
   <v name="usershift">      0.00000000       0.00000000       0.00000000 </v>
   <v name="genvec1">      0.04166667       0.00000000       0.00000000 </v>
   <v name="genvec2">      0.00000000       0.02777778       0.00000000 </v>
   <v name="genvec3">      0.00000000       0.00000000       1.00000000 </v>
   <v name="shift">      0.00000000       0.00000000       0.00000000 </v>
  </generation>
  <varray name="kpointlist" >
   <v>       0.00000000       0.00000000       0.00000000 </v>
   <v>       0.04166667       0.00000000       0.00000000 </v>
   <v>       0.08333333       0.00000000       0.00000000 </v>
   <v>       0.12500000       0.00000000       0.00000000 </v>
   <v>       0.16666667       0.00000000       0.00000000 </v>
   <v>       0.20833333       0.00000000       0.00000000 </v>
   <v>       0.25000000       0.00000000       0.00000000 </v>
   <v>       0.29166667       0.00000000       0.00000000 </v>
   <v>       0.33333333       0.00000000       0.00000000 </v>
   <v>       0.37500000       0.00000000       0.00000000 </v>
   <v>       0.41666667       0.00000000       0.00000000 </v>
   <v>       0.45833333       0.00000000       0.00000000 </v>
   <v>       0.50000000       0.00000000       0.00000000 </v>
   <v>       0.00000000       0.02777778       0.00000000 </v>
   <v>       0.04166667       0.02777778       0.00000000 </v>
   <v>       0.08333333       0.02777778       0.00000000 </v>
   <v>       0.12500000       0.02777778       0.00000000 </v>
   <v>       0.16666667       0.02777778       0.00000000 </v>
   <v>       0.20833333       0.02777778       0.00000000 </v>
   <v>       0.25000000       0.02777778       0.00000000 </v>
   <v>       0.29166667       0.02777778       0.00000000 </v>
   <v>       0.33333333       0.02777778       0.00000000 </v>
   <v>       0.37500000       0.02777778       0.00000000 </v>
   <v>       0.41666667       0.02777778       0.00000000 </v>
   <v>       0.45833333       0.02777778       0.00000000 </v>
   <v>       0.50000000       0.02777778       0.00000000 </v>
   <v>       0.00000000       0.05555556       0.00000000 </v>
   <v>       0.04166667       0.05555556       0.00000000 </v>
   <v>       0.08333333       0.05555556       0.00000000 </v>
   <v>       0.12500000       0.05555556       0.00000000 </v>
   <v>       0.16666667       0.05555556       0.00000000 </v>
   <v>       0.20833333       0.05555556       0.00000000 </v>
   <v>       0.25000000       0.05555556       0.00000000 </v>
   <v>       0.29166667       0.05555556       0.00000000 </v>
   <v>       0.33333333       0.05555556       0.00000000 </v>
   <v>       0.37500000       0.05555556       0.00000000 </v>
   <v>       0.41666667       0.05555556       0.00000000 </v>
   <v>       0.45833333       0.05555556       0.00000000 </v>
   <v>       0.50000000       0.05555556       0.00000000 </v>
   <v>       0.00000000       0.08333333       0.00000000 </v>
   <v>       0.04166667       0.08333333       0.00000000 </v>
   <v>       0.08333333       0.08333333       0.00000000 </v>
   <v>       0.12500000       0.08333333       0.00000000 </v>
   <v>       0.16666667       0.08333333       0.00000000 </v>
   <v>       0.20833333       0.08333333       0.00000000 </v>
   <v>       0.25000000       0.08333333       0.00000000 </v>
   <v>       0.29166667       0.08333333       0.00000000 </v>
   <v>       0.33333333       0.08333333       0.00000000 </v>
   <v>       0.37500000       0.08333333       0.00000000 </v>
   <v>       0.41666667       0.08333333       0.00000000 </v>
   <v>       0.45833333       0.08333333       0.00000000 </v>
   <v>       0.50000000       0.08333333       0.00000000 </v>
   <v>       0.00000000       0.11111111       0.00000000 </v>
   <v>       0.04166667       0.11111111       0.00000000 </v>
   <v>       0.08333333       0.11111111       0.00000000 </v>
   <v>       0.12500000       0.11111111       0.00000000 </v>
   <v>       0.16666667       0.11111111       0.00000000 </v>
   <v>       0.20833333       0.11111111       0.00000000 </v>
   <v>       0.25000000       0.11111111       0.00000000 </v>
   <v>       0.29166667       0.11111111       0.00000000 </v>
   <v>       0.33333333       0.11111111       0.00000000 </v>
   <v>       0.37500000       0.11111111       0.00000000 </v>
   <v>       0.41666667       0.11111111       0.00000000 </v>
   <v>       0.45833333       0.11111111       0.00000000 </v>
   <v>       0.50000000       0.11111111       0.00000000 </v>
   <v>       0.00000000       0.13888889       0.00000000 </v>
   <v>       0.04166667       0.13888889       0.00000000 </v>
   <v>       0.08333333       0.13888889       0.00000000 </v>
   <v>       0.12500000       0.13888889       0.00000000 </v>
   <v>       0.16666667       0.13888889       0.00000000 </v>
   <v>       0.20833333       0.13888889       0.00000000 </v>
   <v>       0.25000000       0.13888889       0.00000000 </v>
   <v>       0.29166667       0.13888889       0.00000000 </v>
   <v>       0.33333333       0.13888889       0.00000000 </v>
   <v>       0.37500000       0.13888889       0.00000000 </v>
   <v>       0.41666667       0.13888889       0.00000000 </v>
   <v>       0.45833333       0.13888889       0.00000000 </v>
   <v>       0.50000000       0.13888889       0.00000000 </v>
   <v>       0.00000000       0.16666667       0.00000000 </v>
   <v>       0.04166667       0.16666667       0.00000000 </v>
   <v>       0.08333333       0.16666667       0.00000000 </v>
   <v>       0.12500000       0.16666667       0.00000000 </v>
   <v>       0.16666667       0.16666667       0.00000000 </v>
   <v>       0.20833333       0.16666667       0.00000000 </v>
   <v>       0.25000000       0.16666667       0.00000000 </v>
   <v>       0.29166667       0.16666667       0.00000000 </v>
   <v>       0.33333333       0.16666667       0.00000000 </v>
   <v>       0.37500000       0.16666667       0.00000000 </v>
   <v>       0.41666667       0.16666667       0.00000000 </v>
   <v>       0.45833333       0.16666667       0.00000000 </v>
   <v>       0.50000000       0.16666667       0.00000000 </v>
   <v>       0.00000000       0.19444444       0.00000000 </v>
   <v>       0.04166667       0.19444444       0.00000000 </v>
   <v>       0.08333333       0.19444444       0.00000000 </v>
   <v>       0.12500000       0.19444444       0.00000000 </v>
   <v>       0.16666667       0.19444444       0.00000000 </v>
   <v>       0.20833333       0.19444444       0.00000000 </v>
   <v>       0.25000000       0.19444444       0.00000000 </v>
   <v>       0.29166667       0.19444444       0.00000000 </v>
   <v>       0.33333333       0.19444444       0.00000000 </v>
   <v>       0.37500000       0.19444444       0.00000000 </v>
   <v>       0.41666667       0.19444444       0.00000000 </v>
   <v>       0.45833333       0.19444444       0.00000000 </v>
   <v>       0.50000000       0.19444444       0.00000000 </v>
   <v>       0.00000000       0.22222222       0.00000000 </v>
   <v>       0.04166667       0.22222222       0.00000000 </v>
   <v>       0.08333333       0.22222222       0.00000000 </v>
   <v>       0.12500000       0.22222222       0.00000000 </v>
   <v>       0.16666667       0.22222222       0.00000000 </v>
   <v>       0.20833333       0.22222222       0.00000000 </v>
   <v>       0.25000000       0.22222222       0.00000000 </v>
   <v>       0.29166667       0.22222222       0.00000000 </v>
   <v>       0.33333333       0.22222222       0.00000000 </v>
   <v>       0.37500000       0.22222222       0.00000000 </v>
   <v>       0.41666667       0.22222222       0.00000000 </v>
   <v>       0.45833333       0.22222222       0.00000000 </v>
   <v>       0.50000000       0.22222222       0.00000000 </v>
   <v>       0.00000000       0.25000000       0.00000000 </v>
   <v>       0.04166667       0.25000000       0.00000000 </v>
   <v>       0.08333333       0.25000000       0.00000000 </v>
   <v>       0.12500000       0.25000000       0.00000000 </v>
   <v>       0.16666667       0.25000000       0.00000000 </v>
   <v>       0.20833333       0.25000000       0.00000000 </v>
   <v>       0.25000000       0.25000000       0.00000000 </v>
   <v>       0.29166667       0.25000000       0.00000000 </v>
   <v>       0.33333333       0.25000000       0.00000000 </v>
   <v>       0.37500000       0.25000000       0.00000000 </v>
   <v>       0.41666667       0.25000000       0.00000000 </v>
   <v>       0.45833333       0.25000000       0.00000000 </v>
   <v>       0.50000000       0.25000000       0.00000000 </v>
   <v>       0.00000000       0.27777778       0.00000000 </v>
   <v>       0.04166667       0.27777778       0.00000000 </v>
   <v>       0.08333333       0.27777778       0.00000000 </v>
   <v>       0.12500000       0.27777778       0.00000000 </v>
   <v>       0.16666667       0.27777778       0.00000000 </v>
   <v>       0.20833333       0.27777778       0.00000000 </v>
   <v>       0.25000000       0.27777778       0.00000000 </v>
   <v>       0.29166667       0.27777778       0.00000000 </v>
   <v>       0.33333333       0.27777778       0.00000000 </v>
   <v>       0.37500000       0.27777778       0.00000000 </v>
   <v>       0.41666667       0.27777778       0.00000000 </v>
   <v>       0.45833333       0.27777778       0.00000000 </v>
   <v>       0.50000000       0.27777778       0.00000000 </v>
   <v>       0.00000000       0.30555556       0.00000000 </v>
   <v>       0.04166667       0.30555556       0.00000000 </v>
   <v>       0.08333333       0.30555556       0.00000000 </v>
   <v>       0.12500000       0.30555556       0.00000000 </v>
   <v>       0.16666667       0.30555556       0.00000000 </v>
   <v>       0.20833333       0.30555556       0.00000000 </v>
   <v>       0.25000000       0.30555556       0.00000000 </v>
   <v>       0.29166667       0.30555556       0.00000000 </v>
   <v>       0.33333333       0.30555556       0.00000000 </v>
   <v>       0.37500000       0.30555556       0.00000000 </v>
   <v>       0.41666667       0.30555556       0.00000000 </v>
   <v>       0.45833333       0.30555556       0.00000000 </v>
   <v>       0.50000000       0.30555556       0.00000000 </v>
   <v>       0.00000000       0.33333333       0.00000000 </v>
   <v>       0.04166667       0.33333333       0.00000000 </v>
   <v>       0.08333333       0.33333333       0.00000000 </v>
   <v>       0.12500000       0.33333333       0.00000000 </v>
   <v>       0.16666667       0.33333333       0.00000000 </v>
   <v>       0.20833333       0.33333333       0.00000000 </v>
   <v>       0.25000000       0.33333333       0.00000000 </v>
   <v>       0.29166667       0.33333333       0.00000000 </v>
   <v>       0.33333333       0.33333333       0.00000000 </v>
   <v>       0.37500000       0.33333333       0.00000000 </v>
   <v>       0.41666667       0.33333333       0.00000000 </v>
   <v>       0.45833333       0.33333333       0.00000000 </v>
   <v>       0.50000000       0.33333333       0.00000000 </v>
   <v>       0.00000000       0.36111111       0.00000000 </v>
   <v>       0.04166667       0.36111111       0.00000000 </v>
   <v>       0.08333333       0.36111111       0.00000000 </v>
   <v>       0.12500000       0.36111111       0.00000000 </v>
   <v>       0.16666667       0.36111111       0.00000000 </v>
   <v>       0.20833333       0.36111111       0.00000000 </v>
   <v>       0.25000000       0.36111111       0.00000000 </v>
   <v>       0.29166667       0.36111111       0.00000000 </v>
   <v>       0.33333333       0.36111111       0.00000000 </v>
   <v>       0.37500000       0.36111111       0.00000000 </v>
   <v>       0.41666667       0.36111111       0.00000000 </v>
   <v>       0.45833333       0.36111111       0.00000000 </v>
   <v>       0.50000000       0.36111111       0.00000000 </v>
   <v>       0.00000000       0.38888889       0.00000000 </v>
   <v>       0.04166667       0.38888889       0.00000000 </v>
   <v>       0.08333333       0.38888889       0.00000000 </v>
   <v>       0.12500000       0.38888889       0.00000000 </v>
   <v>       0.16666667       0.38888889       0.00000000 </v>
   <v>       0.20833333       0.38888889       0.00000000 </v>
   <v>       0.25000000       0.38888889       0.00000000 </v>
   <v>       0.29166667       0.38888889       0.00000000 </v>
   <v>       0.33333333       0.38888889       0.00000000 </v>
   <v>       0.37500000       0.38888889       0.00000000 </v>
   <v>       0.41666667       0.38888889       0.00000000 </v>
   <v>       0.45833333       0.38888889       0.00000000 </v>
   <v>       0.50000000       0.38888889       0.00000000 </v>
   <v>       0.00000000       0.41666667       0.00000000 </v>
   <v>       0.04166667       0.41666667       0.00000000 </v>
   <v>       0.08333333       0.41666667       0.00000000 </v>
   <v>       0.12500000       0.41666667       0.00000000 </v>
   <v>       0.16666667       0.41666667       0.00000000 </v>
   <v>       0.20833333       0.41666667       0.00000000 </v>
   <v>       0.25000000       0.41666667       0.00000000 </v>
   <v>       0.29166667       0.41666667       0.00000000 </v>
   <v>       0.33333333       0.41666667       0.00000000 </v>
   <v>       0.37500000       0.41666667       0.00000000 </v>
   <v>       0.41666667       0.41666667       0.00000000 </v>
   <v>       0.45833333       0.41666667       0.00000000 </v>
   <v>       0.50000000       0.41666667       0.00000000 </v>
   <v>       0.00000000       0.44444444       0.00000000 </v>
   <v>       0.04166667       0.44444444       0.00000000 </v>
   <v>       0.08333333       0.44444444       0.00000000 </v>
   <v>       0.12500000       0.44444444       0.00000000 </v>
   <v>       0.16666667       0.44444444       0.00000000 </v>
   <v>       0.20833333       0.44444444       0.00000000 </v>
   <v>       0.25000000       0.44444444       0.00000000 </v>
   <v>       0.29166667       0.44444444       0.00000000 </v>
   <v>       0.33333333       0.44444444       0.00000000 </v>
   <v>       0.37500000       0.44444444       0.00000000 </v>
   <v>       0.41666667       0.44444444       0.00000000 </v>
   <v>       0.45833333       0.44444444       0.00000000 </v>
   <v>       0.50000000       0.44444444       0.00000000 </v>
   <v>       0.00000000       0.47222222       0.00000000 </v>
   <v>       0.04166667       0.47222222       0.00000000 </v>
   <v>       0.08333333       0.47222222       0.00000000 </v>
   <v>       0.12500000       0.47222222       0.00000000 </v>
   <v>       0.16666667       0.47222222       0.00000000 </v>
   <v>       0.20833333       0.47222222       0.00000000 </v>
   <v>       0.25000000       0.47222222       0.00000000 </v>
   <v>       0.29166667       0.47222222       0.00000000 </v>
   <v>       0.33333333       0.47222222       0.00000000 </v>
   <v>       0.37500000       0.47222222       0.00000000 </v>
   <v>       0.41666667       0.47222222       0.00000000 </v>
   <v>       0.45833333       0.47222222       0.00000000 </v>
   <v>       0.50000000       0.47222222       0.00000000 </v>
   <v>       0.00000000       0.50000000       0.00000000 </v>
   <v>       0.04166667       0.50000000       0.00000000 </v>
   <v>       0.08333333       0.50000000       0.00000000 </v>
   <v>       0.12500000       0.50000000       0.00000000 </v>
   <v>       0.16666667       0.50000000       0.00000000 </v>
   <v>       0.20833333       0.50000000       0.00000000 </v>
   <v>       0.25000000       0.50000000       0.00000000 </v>
   <v>       0.29166667       0.50000000       0.00000000 </v>
   <v>       0.33333333       0.50000000       0.00000000 </v>
   <v>       0.37500000       0.50000000       0.00000000 </v>
   <v>       0.41666667       0.50000000       0.00000000 </v>
   <v>       0.45833333       0.50000000       0.00000000 </v>
   <v>       0.50000000       0.50000000       0.00000000 </v>
  </varray>
  <varray name="weights" >
   <v>       0.00115741 </v>
   <v>       0.00231481 </v>
   <v>       0.00231481 </v>
   <v>       0.00231481 </v>
   <v>       0.00231481 </v>
   <v>       0.00231481 </v>
   <v>       0.00231481 </v>
   <v>       0.00231481 </v>
   <v>       0.00231481 </v>
   <v>       0.00231481 </v>
   <v>       0.00231481 </v>
   <v>       0.00231481 </v>
   <v>       0.00115741 </v>
   <v>       0.00231481 </v>
   <v>       0.00462963 </v>
   <v>       0.00462963 </v>
   <v>       0.00462963 </v>
   <v>       0.00462963 </v>
   <v>       0.00462963 </v>
   <v>       0.00462963 </v>
   <v>       0.00462963 </v>
   <v>       0.00462963 </v>
   <v>       0.00462963 </v>
   <v>       0.00462963 </v>
   <v>       0.00462963 </v>
   <v>       0.00231481 </v>
   <v>       0.00231481 </v>
   <v>       0.00462963 </v>
   <v>       0.00462963 </v>
   <v>       0.00462963 </v>
   <v>       0.00462963 </v>
   <v>       0.00462963 </v>
   <v>       0.00462963 </v>
   <v>       0.00462963 </v>
   <v>       0.00462963 </v>
   <v>       0.00462963 </v>
   <v>       0.00462963 </v>
   <v>       0.00462963 </v>
   <v>       0.00231481 </v>
   <v>       0.00231481 </v>
   <v>       0.00462963 </v>
   <v>       0.00462963 </v>
   <v>       0.00462963 </v>
   <v>       0.00462963 </v>
   <v>       0.00462963 </v>
   <v>       0.00462963 </v>
   <v>       0.00462963 </v>
   <v>       0.00462963 </v>
   <v>       0.00462963 </v>
   <v>       0.00462963 </v>
   <v>       0.00462963 </v>
   <v>       0.00231481 </v>
   <v>       0.00231481 </v>
   <v>       0.00462963 </v>
   <v>       0.00462963 </v>
   <v>       0.00462963 </v>
   <v>       0.00462963 </v>
   <v>       0.00462963 </v>
   <v>       0.00462963 </v>
   <v>       0.00462963 </v>
   <v>       0.00462963 </v>
   <v>       0.00462963 </v>
   <v>       0.00462963 </v>
   <v>       0.00462963 </v>
   <v>       0.00231481 </v>
   <v>       0.00231481 </v>
   <v>       0.00462963 </v>
   <v>       0.00462963 </v>
   <v>       0.00462963 </v>
   <v>       0.00462963 </v>
   <v>       0.00462963 </v>
   <v>       0.00462963 </v>
   <v>       0.00462963 </v>
   <v>       0.00462963 </v>
   <v>       0.00462963 </v>
   <v>       0.00462963 </v>
   <v>       0.00462963 </v>
   <v>       0.00231481 </v>
   <v>       0.00231481 </v>
   <v>       0.00462963 </v>
   <v>       0.00462963 </v>
   <v>       0.00462963 </v>
   <v>       0.00462963 </v>
   <v>       0.00462963 </v>
   <v>       0.00462963 </v>
   <v>       0.00462963 </v>
   <v>       0.00462963 </v>
   <v>       0.00462963 </v>
   <v>       0.00462963 </v>
   <v>       0.00462963 </v>
   <v>       0.00231481 </v>
   <v>       0.00231481 </v>
   <v>       0.00462963 </v>
   <v>       0.00462963 </v>
   <v>       0.00462963 </v>
   <v>       0.00462963 </v>
   <v>       0.00462963 </v>
   <v>       0.00462963 </v>
   <v>       0.00462963 </v>
   <v>       0.00462963 </v>
   <v>       0.00462963 </v>
   <v>       0.00462963 </v>
   <v>       0.00462963 </v>
   <v>       0.00231481 </v>
   <v>       0.00231481 </v>
   <v>       0.00462963 </v>
   <v>       0.00462963 </v>
   <v>       0.00462963 </v>
   <v>       0.00462963 </v>
   <v>       0.00462963 </v>
   <v>       0.00462963 </v>
   <v>       0.00462963 </v>
   <v>       0.00462963 </v>
   <v>       0.00462963 </v>
   <v>       0.00462963 </v>
   <v>       0.00462963 </v>
   <v>       0.00231481 </v>
   <v>       0.00231481 </v>
   <v>       0.00462963 </v>
   <v>       0.00462963 </v>
   <v>       0.00462963 </v>
   <v>       0.00462963 </v>
   <v>       0.00462963 </v>
   <v>       0.00462963 </v>
   <v>       0.00462963 </v>
   <v>       0.00462963 </v>
   <v>       0.00462963 </v>
   <v>       0.00462963 </v>
   <v>       0.00462963 </v>
   <v>       0.00231481 </v>
   <v>       0.00231481 </v>
   <v>       0.00462963 </v>
   <v>       0.00462963 </v>
   <v>       0.00462963 </v>
   <v>       0.00462963 </v>
   <v>       0.00462963 </v>
   <v>       0.00462963 </v>
   <v>       0.00462963 </v>
   <v>       0.00462963 </v>
   <v>       0.00462963 </v>
   <v>       0.00462963 </v>
   <v>       0.00462963 </v>
   <v>       0.00231481 </v>
   <v>       0.00231481 </v>
   <v>       0.00462963 </v>
   <v>       0.00462963 </v>
   <v>       0.00462963 </v>
   <v>       0.00462963 </v>
   <v>       0.00462963 </v>
   <v>       0.00462963 </v>
   <v>       0.00462963 </v>
   <v>       0.00462963 </v>
   <v>       0.00462963 </v>
   <v>       0.00462963 </v>
   <v>       0.00462963 </v>
   <v>       0.00231481 </v>
   <v>       0.00231481 </v>
   <v>       0.00462963 </v>
   <v>       0.00462963 </v>
   <v>       0.00462963 </v>
   <v>       0.00462963 </v>
   <v>       0.00462963 </v>
   <v>       0.00462963 </v>
   <v>       0.00462963 </v>
   <v>       0.00462963 </v>
   <v>       0.00462963 </v>
   <v>       0.00462963 </v>
   <v>       0.00462963 </v>
   <v>       0.00231481 </v>
   <v>       0.00231481 </v>
   <v>       0.00462963 </v>
   <v>       0.00462963 </v>
   <v>       0.00462963 </v>
   <v>       0.00462963 </v>
   <v>       0.00462963 </v>
   <v>       0.00462963 </v>
   <v>       0.00462963 </v>
   <v>       0.00462963 </v>
   <v>       0.00462963 </v>
   <v>       0.00462963 </v>
   <v>       0.00462963 </v>
   <v>       0.00231481 </v>
   <v>       0.00231481 </v>
   <v>       0.00462963 </v>
   <v>       0.00462963 </v>
   <v>       0.00462963 </v>
   <v>       0.00462963 </v>
   <v>       0.00462963 </v>
   <v>       0.00462963 </v>
   <v>       0.00462963 </v>
   <v>       0.00462963 </v>
   <v>       0.00462963 </v>
   <v>       0.00462963 </v>
   <v>       0.00462963 </v>
   <v>       0.00231481 </v>
   <v>       0.00231481 </v>
   <v>       0.00462963 </v>
   <v>       0.00462963 </v>
   <v>       0.00462963 </v>
   <v>       0.00462963 </v>
   <v>       0.00462963 </v>
   <v>       0.00462963 </v>
   <v>       0.00462963 </v>
   <v>       0.00462963 </v>
   <v>       0.00462963 </v>
   <v>       0.00462963 </v>
   <v>       0.00462963 </v>
   <v>       0.00231481 </v>
   <v>       0.00231481 </v>
   <v>       0.00462963 </v>
   <v>       0.00462963 </v>
   <v>       0.00462963 </v>
   <v>       0.00462963 </v>
   <v>       0.00462963 </v>
   <v>       0.00462963 </v>
   <v>       0.00462963 </v>
   <v>       0.00462963 </v>
   <v>       0.00462963 </v>
   <v>       0.00462963 </v>
   <v>       0.00462963 </v>
   <v>       0.00231481 </v>
   <v>       0.00231481 </v>
   <v>       0.00462963 </v>
   <v>       0.00462963 </v>
   <v>       0.00462963 </v>
   <v>       0.00462963 </v>
   <v>       0.00462963 </v>
   <v>       0.00462963 </v>
   <v>       0.00462963 </v>
   <v>       0.00462963 </v>
   <v>       0.00462963 </v>
   <v>       0.00462963 </v>
   <v>       0.00462963 </v>
   <v>       0.00231481 </v>
   <v>       0.00115741 </v>
   <v>       0.00231481 </v>
   <v>       0.00231481 </v>
   <v>       0.00231481 </v>
   <v>       0.00231481 </v>
   <v>       0.00231481 </v>
   <v>       0.00231481 </v>
   <v>       0.00231481 </v>
   <v>       0.00231481 </v>
   <v>       0.00231481 </v>
   <v>       0.00231481 </v>
   <v>       0.00231481 </v>
   <v>       0.00115741 </v>
  </varray>
 </kpoints>
 <parameters>
  <separator name="general" >
   <i type="string" name="SYSTEM">gr</i>
   <i type="logical" name="LCOMPAT"> F  </i>
  </separator>
  <separator name="electronic" >
   <i type="string" name="PREC">accura</i>
   <i name="ENMAX">   2000.00000000</i>
   <i name="ENAUG">    644.87300000</i>
   <i name="EDIFF">      0.00000000</i>
   <i type="int" name="IALGO">    68</i>
   <i type="int" name="IWAVPR">    11</i>
   <i type="int" name="NBANDS">    12</i>
   <i name="NELECT">     16.00000000</i>
   <i type="int" name="TURBO">     0</i>
   <i type="int" name="IRESTART">     0</i>
   <i type="int" name="NREBOOT">     0</i>
   <i type="int" name="NMIN">     0</i>
   <i name="EREF">      0.00000000</i>
   <separator name="electronic smearing" >
    <i type="int" name="ISMEAR">     0</i>
    <i name="SIGMA">      0.05000000</i>
    <i name="KSPACING">      0.50000000</i>
    <i type="logical" name="KGAMMA"> T  </i>
   </separator>
   <separator name="electronic projectors" >
    <i type="logical" name="LREAL"> F  </i>
    <v name="ROPT">      0.00000000</v>
    <i type="int" name="LMAXPAW">  -100</i>
    <i type="int" name="LMAXMIX">     2</i>
    <i type="logical" name="NLSPLINE"> F  </i>
   </separator>
   <separator name="electronic startup" >
    <i type="int" name="ISTART">     0</i>
    <i type="int" name="ICHARG">     2</i>
    <i type="int" name="INIWAV">     1</i>
   </separator>
   <separator name="electronic spin" >
    <i type="int" name="ISPIN">     1</i>
    <i type="logical" name="LNONCOLLINEAR"> F  </i>
    <v name="MAGMOM">      1.00000000      1.00000000      1.00000000      1.00000000</v>
    <i name="NUPDOWN">     -1.00000000</i>
    <i type="logical" name="LSORBIT"> F  </i>
    <v name="SAXIS">      0.00000000      0.00000000      1.00000000</v>
    <i type="logical" name="LSPIRAL"> F  </i>
    <v name="QSPIRAL">      0.00000000      0.00000000      0.00000000</v>
    <i type="logical" name="LZEROZ"> F  </i>
   </separator>
   <separator name="electronic exchange-correlation" >
    <i type="logical" name="LASPH"> F  </i>
    <i type="logical" name="LMETAGGA"> F  </i>
   </separator>
   <separator name="electronic convergence" >
    <i type="int" name="NELM">   100</i>
    <i type="int" name="NELMDL">    -3</i>
    <i type="int" name="NELMIN">     5</i>
    <i name="ENINI">   2000.00000000</i>
    <separator name="electronic convergence detail" >
     <i type="logical" name="LDIAG"> T  </i>
     <i type="logical" name="LSUBROT"> F  </i>
     <i name="WEIMIN">      0.00100000</i>
     <i name="EBREAK">      0.00000000</i>
     <i name="DEPER">      0.30000000</i>
     <i type="int" name="NRMM">     4</i>
     <i name="TIME">      0.40000000</i>
    </separator>
   </separator>
   <separator name="electronic mixer" >
    <i name="AMIX">      0.40000000</i>
    <i name="BMIX">      1.00000000</i>
    <i name="AMIN">      0.10000000</i>
    <i name="AMIX_MAG">      1.60000000</i>
    <i name="BMIX_MAG">      1.00000000</i>
    <separator name="electronic mixer details" >
     <i type="int" name="IMIX">     4</i>
     <i type="int" name="MAXMIX">   -45</i>
     <i name="WC">    100.00000000</i>
     <i type="int" name="INIMIX">     1</i>
     <i type="int" name="MIXPRE">     1</i>
     <i type="int" name="MREMOVE">     5</i>
    </separator>
   </separator>
   <separator name="electronic dipolcorrection" >
    <i type="logical" name="LDIPOL"> F  </i>
    <i type="logical" name="LMONO"> F  </i>
    <i type="int" name="IDIPOL">     0</i>
    <i name="EPSILON">      1.00000000</i>
    <v name="DIPOL">   -100.00000000   -100.00000000   -100.00000000</v>
    <i name="EFIELD">      0.00000000</i>
   </separator>
  </separator>
  <separator name="grids" >
   <i type="int" name="NGX">    64</i>
   <i type="int" name="NGY">    36</i>
   <i type="int" name="NGZ">   294</i>
   <i type="int" name="NGXF">   128</i>
   <i type="int" name="NGYF">    72</i>
   <i type="int" name="NGZF">   588</i>
   <i type="logical" name="ADDGRID"> F  </i>
  </separator>
  <separator name="ionic" >
   <i type="int" name="NSW">   400</i>
   <i type="int" name="IBRION">     1</i>
   <i type="int" name="ISIF">     2</i>
   <i name="PSTRESS">      0.00000000</i>
   <i name="EDIFFG">     -0.00000100</i>
   <i type="int" name="NFREE">     0</i>
   <i name="POTIM">      0.50000000</i>
   <i name="SMASS">     -3.00000000</i>
   <i name="SCALEE">      1.00000000</i>
  </separator>
  <separator name="ionic md" >
   <i name="TEBEG">      0.00010000</i>
   <i name="TEEND">      0.00010000</i>
   <i type="int" name="NBLOCK">     1</i>
   <i type="int" name="KBLOCK">   400</i>
   <i type="int" name="NPACO">   256</i>
   <i name="APACO">     16.00000000</i>
  </separator>
  <separator name="symmetry" >
   <i type="int" name="ISYM">     2</i>
   <i name="SYMPREC">      0.00001000</i>
  </separator>
  <separator name="dos" >
   <i type="logical" name="LORBIT"> F  </i>
   <v name="RWIGS">     -1.00000000</v>
   <i type="int" name="NEDOS">   301</i>
   <i name="EMIN">     10.00000000</i>
   <i name="EMAX">    -10.00000000</i>
   <i name="EFERMI">      0.00000000</i>
  </separator>
  <separator name="writing" >
   <i type="int" name="NWRITE">     2</i>
   <i type="logical" name="LWAVE"> F  </i>
   <i type="logical" name="LCHARG"> F  </i>
   <i type="logical" name="LPARD"> F  </i>
   <i type="logical" name="LVTOT"> F  </i>
   <i type="logical" name="LVHAR"> F  </i>
   <i type="logical" name="LELF"> F  </i>
   <i type="logical" name="LOPTICS"> F  </i>
   <v name="STM">      0.00000000      0.00000000      0.00000000      0.00000000      0.00000000      0.00000000      0.00000000</v>
  </separator>
  <separator name="performance" >
   <i type="int" name="NPAR">     4</i>
   <i type="int" name="NSIM">     4</i>
   <i type="int" name="NBLK">    -1</i>
   <i type="logical" name="LPLANE"> T  </i>
   <i type="logical" name="LSCALAPACK"> F  </i>
   <i type="logical" name="LSCAAWARE"> F  </i>
   <i type="logical" name="LSCALU"> F  </i>
   <i type="logical" name="LASYNC"> F  </i>
   <i type="logical" name="LORBITALREAL"> F  </i>
  </separator>
  <separator name="miscellaneous" >
   <i type="int" name="IDIOT">     3</i>
   <i type="logical" name="LMUSIC"> F  </i>
   <v name="POMASS">     12.01100000</v>
   <v name="DARWINR">      0.00000000</v>
   <v name="DARWINV">      1.00000000</v>
   <i type="logical" name="LCORR"> T  </i>
  </separator>
  <i type="logical" name="GGA_COMPAT"> T  </i>
  <i type="logical" name="LBERRY"> F  </i>
  <i type="int" name="ICORELEVEL">     0</i>
  <i type="logical" name="LDAU"> F  </i>
  <i type="int" name="I_CONSTRAINED_M">     0</i>
  <separator name="electronic exchange-correlation" >
   <i type="string" name="GGA">--</i>
   <i type="int" name="VOSKOWN">     0</i>
   <i type="logical" name="LHFCALC"> F  </i>
   <i type="string" name="PRECFOCK"></i>
   <i type="logical" name="LSYMGRAD"> F  </i>
   <i type="logical" name="LHFONE"> F  </i>
   <i type="logical" name="LRHFCALC"> F  </i>
   <i type="logical" name="LTHOMAS"> F  </i>
   <i type="logical" name="LMODELHF"> F  </i>
   <i name="ENCUT4O">     -1.00000000</i>
   <i type="int" name="EXXOEP">     0</i>
   <i type="int" name="FOURORBIT">     0</i>
   <i name="AEXX">      0.00000000</i>
   <i name="HFALPHA">      0.00000000</i>
   <i name="MCALPHA">      0.00000000</i>
   <i name="ALDAX">      1.00000000</i>
   <i name="AGGAX">      1.00000000</i>
   <i name="ALDAC">      1.00000000</i>
   <i name="AGGAC">      1.00000000</i>
   <i type="int" name="NKREDX">     1</i>
   <i type="int" name="NKREDY">     1</i>
   <i type="int" name="NKREDZ">     1</i>
   <i type="logical" name="SHIFTRED"> F  </i>
   <i type="logical" name="ODDONLY"> F  </i>
   <i type="logical" name="EVENONLY"> F  </i>
   <i type="int" name="LMAXFOCK">     0</i>
   <i type="int" name="NMAXFOCKAE">     0</i>
   <i type="logical" name="LFOCKAEDFT"> F  </i>
   <i name="HFSCREEN">      0.00000000</i>
   <i name="HFSCREENC">      0.00000000</i>
   <i type="int" name="NBANDSGWLOW">     0</i>
  </separator>
  <separator name="vdW DFT" >
   <i type="logical" name="LUSE_VDW"> F  </i>
   <i name="Zab_VDW">     -0.84910000</i>
   <i name="PARAM1">      0.12340000</i>
   <i name="PARAM2">      1.00000000</i>
   <i name="PARAM3">      0.00000000</i>
  </separator>
  <separator name="model GW" >
   <i type="int" name="MODEL_GW">     0</i>
   <i name="MODEL_EPS0">     31.62568521</i>
   <i name="MODEL_ALPHA">      1.00000000</i>
  </separator>
  <separator name="linear response parameters" >
   <i type="logical" name="LEPSILON"> F  </i>
   <i type="logical" name="LRPA"> F  </i>
   <i type="logical" name="LNABLA"> F  </i>
   <i type="logical" name="LVEL"> F  </i>
   <i type="int" name="KINTER">     0</i>
   <i name="CSHIFT">      0.10000000</i>
   <i name="OMEGAMAX">     -1.00000000</i>
   <i name="DEG_THRESHOLD">      0.00200000</i>
  </separator>
  <separator name="orbital magnetization" >
   <i type="logical" name="NUCIND"> F  </i>
   <v name="MAGPOS">      0.00000000      0.00000000      0.00000000</v>
   <i type="logical" name="LNICSALL"> T  </i>
   <i type="logical" name="ORBITALMAG"> F  </i>
   <i type="logical" name="LMAGBLOCH"> F  </i>
   <i type="logical" name="LCHIMAG"> F  </i>
   <i type="logical" name="LGAUGE"> T  </i>
   <i type="int" name="MAGATOM">     0</i>
   <v name="MAGDIPOL">      0.00000000      0.00000000      0.00000000</v>
   <v name="AVECCONST">      0.00000000      0.00000000      0.00000000</v>
  </separator>
  <separator name="response functions" >
   <i type="logical" name="LADDER"> F  </i>
   <i type="logical" name="LFXC"> F  </i>
   <i type="logical" name="LHARTREE"> T  </i>
   <i type="int" name="IBSE">     0</i>
   <i type="logical" name="LTCTE"> F  </i>
   <i type="logical" name="LTETE"> F  </i>
   <i type="logical" name="LTRIPLET"> F  </i>
   <i type="logical" name="LFXCEPS"> F  </i>
   <i type="logical" name="LFXHEG"> F  </i>
   <i type="logical" name="L2ORDER"> F  </i>
   <i type="logical" name="LUSEW"> F  </i>
   <i name="ENCUTGW">     -2.00000000</i>
   <i name="ENCUTGWSOFT">     -2.00000000</i>
   <i name="ENCUTLF">     -1.00000000</i>
   <i type="int" name="LMAXMP2">    -1</i>
   <i name="SCISSOR">      0.00000000</i>
   <i type="int" name="NOMEGA">     0</i>
   <i type="int" name="NOMEGAR">     0</i>
   <i type="int" name="NBANDSGW">    -1</i>
   <i type="int" name="NBANDSO">    -1</i>
   <i type="int" name="NBANDSV">    -1</i>
   <i type="int" name="NELM">   100</i>
   <i type="int" name="DIM">     3</i>
   <i type="int" name="ANTIRES">     0</i>
   <i name="OMEGAMAX">    -30.00000000</i>
   <i name="OMEGAMIN">    -30.00000000</i>
   <i name="OMEGATL">   -200.00000000</i>
   <i type="int" name="OMEGAGRID">     0</i>
   <i name="CSHIFT">     -0.10000000</i>
   <i type="logical" name="SELFENERGY"> F  </i>
   <i type="logical" name="LSPECTRAL"> F  </i>
   <i type="logical" name="ODDONLYGW"> F  </i>
   <i type="logical" name="EVENONLYGW"> F  </i>
   <i type="int" name="NKREDLFX">     1</i>
   <i type="int" name="NKREDLFY">     1</i>
   <i type="int" name="NKREDLFZ">     1</i>
   <i type="int" name="MAXMEM">  1800</i>
   <i type="int" name="TELESCOPE">     0</i>
   <i type="int" name="TAUPAR">     1</i>
  </separator>
  <separator name="External order field" >
   <i name="OFIELD_KAPPA">      0.00000000</i>
   <v name="OFIELD_K">      0.00000000      0.00000000      0.00000000</v>
   <i name="OFIELD_Q6_NEAR">      0.00000000</i>
   <i name="OFIELD_Q6_FAR">      0.00000000</i>
   <i name="OFIELD_A">      0.00000000</i>
  </separator>
 </parameters>
 <atominfo>
  <atoms>       4 </atoms>
  <types>       1 </types>
  <array name="atoms" >
   <dimension dim="1">ion</dimension>
   <field type="string">element</field>
   <field type="int">atomtype</field>
   <set>
    <rc><c>C </c><c>   1</c></rc>
    <rc><c>C </c><c>   1</c></rc>
    <rc><c>C </c><c>   1</c></rc>
    <rc><c>C </c><c>   1</c></rc>
   </set>
  </array>
  <array name="atomtypes" >
   <dimension dim="1">type</dimension>
   <field type="int">atomspertype</field>
   <field type="string">element</field>
   <field>mass</field>
   <field>valence</field>
   <field type="string">pseudopotential</field>
   <set>
    <rc><c>   4</c><c>C </c><c>     12.01100000</c><c>      4.00000000</c><c> PAW_PBE C 08Apr2002                    </c></rc>
   </set>
  </array>
 </atominfo>
 <structure name="initialpos" >
  <crystal>
   <varray name="basis" >
    <v>       4.31684647       0.00000000       0.00000000 </v>
    <v>       0.00000000       2.46276166       0.00000000 </v>
    <v>       0.00000000       0.00000000      19.83168873 </v>
   </varray>
   <i name="volume">    210.83790140 </i>
   <varray name="rec_basis" >
    <v>       0.23165058       0.00000000       0.00000000 </v>
    <v>       0.00000000       0.40604822       0.00000000 </v>
    <v>       0.00000000       0.00000000       0.05042435 </v>
   </varray>
  </crystal>
  <varray name="positions" >
   <v>       0.99975412       0.00000000       0.00000000 </v>
   <v>       0.16691255       0.50000000       0.00000000 </v>
   <v>       0.49975412       0.50000000       0.00000000 </v>
   <v>       0.66691255       0.00000000       0.00000000 </v>
  </varray>
 </structure>
 <calculation>
  <scstep>
   <time name="dav">  299.89  634.12</time>
   <time name="total">  302.47  637.02</time>
   <energy>
    <i name="alphaZ">      6.18334092 </i>
    <i name="ewald">   2530.02291488 </i>
    <i name="hartreedc">  -2957.10324778 </i>
    <i name="XCdc">     54.98267038 </i>
    <i name="pawpsdc">    151.32577238 </i>
    <i name="pawaedc">   -155.92769107 </i>
    <i name="eentropy">     -0.00193368 </i>
    <i name="bandstr">    -29.62216323 </i>
    <i name="atom">    588.62352690 </i>
    <i name="e_fr_energy">    188.48318970 </i>
    <i name="e_wo_entrp">    188.48512339 </i>
    <i name="e_0_energy">    188.48415654 </i>
   </energy>
  </scstep>
  <scstep>
   <time name="dav">  455.01  470.44</time>
   <time name="total">  455.02  470.53</time>
   <energy>
    <i name="e_fr_energy">     -9.79889107 </i>
    <i name="e_wo_entrp">     -9.79859890 </i>
    <i name="e_0_energy">     -9.79874498 </i>
   </energy>
  </scstep>
  <scstep>
   <time name="dav">  347.90  349.18</time>
   <time name="total">  379.37  380.88</time>
   <energy>
    <i name="e_fr_energy">    -38.27973846 </i>
    <i name="e_wo_entrp">    -38.27973820 </i>
    <i name="e_0_energy">    -38.27973833 </i>
   </energy>
  </scstep>
  <scstep>
   <time name="diag">   81.15   81.79</time>
   <time name="diis">  341.94  345.28</time>
   <time name="orth">    3.07    3.10</time>
   <time name="total">  459.73  544.77</time>
   <energy>
    <i name="e_fr_energy">    -37.65028555 </i>
    <i name="e_wo_entrp">    -37.65028540 </i>
    <i name="e_0_energy">    -37.65028548 </i>
   </energy>
  </scstep>
  <scstep>
   <time name="diag">   81.18   81.71</time>
   <time name="diis">  338.17  340.91</time>
   <time name="orth">    3.07    3.09</time>
   <time name="total">  456.07  463.47</time>
   <energy>
    <i name="e_fr_energy">    -36.90933433 </i>
    <i name="e_wo_entrp">    -36.90933424 </i>
    <i name="e_0_energy">    -36.90933428 </i>
   </energy>
  </scstep>
  <scstep>
   <time name="diag">   81.02   81.74</time>
   <time name="diis">  368.53  371.35</time>
   <time name="orth">    3.08    3.09</time>
   <time name="total">  486.21  495.48</time>
   <energy>
    <i name="e_fr_energy">    -36.91153536 </i>
    <i name="e_wo_entrp">    -36.91153525 </i>
    <i name="e_0_energy">    -36.91153530 </i>
   </energy>
  </scstep>
  <scstep>
   <time name="diag">   80.98   81.74</time>
   <time name="diis">  338.74  341.70</time>
   <time name="orth">    3.06    3.09</time>
   <time name="total">  456.45  460.49</time>
   <energy>
    <i name="e_fr_energy">    -36.90221467 </i>
    <i name="e_wo_entrp">    -36.90221455 </i>
    <i name="e_0_energy">    -36.90221461 </i>
   </energy>
  </scstep>
  <scstep>
   <time name="diag">   81.58   81.71</time>
   <time name="diis">  341.21  343.43</time>
   <time name="orth">    3.07    3.07</time>
   <time name="total">  459.68  462.23</time>
   <energy>
    <i name="e_fr_energy">    -36.89685705 </i>
    <i name="e_wo_entrp">    -36.89685693 </i>
    <i name="e_0_energy">    -36.89685699 </i>
   </energy>
  </scstep>
  <scstep>
   <time name="diag">   81.22   81.65</time>
   <time name="diis">  329.62  331.63</time>
   <time name="orth">    3.07    3.07</time>
   <time name="total">  447.54  450.33</time>
   <energy>
    <i name="e_fr_energy">    -36.89651692 </i>
    <i name="e_wo_entrp">    -36.89651681 </i>
    <i name="e_0_energy">    -36.89651686 </i>
   </energy>
  </scstep>
  <scstep>
   <time name="diag">   81.39   81.74</time>
   <time name="diis">  332.48  332.78</time>
   <time name="orth">    3.09    3.09</time>
   <time name="total">  450.85  451.59</time>
   <energy>
    <i name="e_fr_energy">    -36.89634773 </i>
    <i name="e_wo_entrp">    -36.89634761 </i>
    <i name="e_0_energy">    -36.89634767 </i>
   </energy>
  </scstep>
  <scstep>
   <time name="diag">   81.22   81.67</time>
   <time name="diis">  332.94  334.56</time>
   <time name="orth">    3.08    3.08</time>
   <time name="total">  451.05  453.35</time>
   <energy>
    <i name="e_fr_energy">    -36.89890955 </i>
    <i name="e_wo_entrp">    -36.89890943 </i>
    <i name="e_0_energy">    -36.89890949 </i>
   </energy>
  </scstep>
  <scstep>
   <time name="diag">   81.13   81.66</time>
   <time name="diis">  331.20  333.34</time>
   <time name="orth">    3.08    3.09</time>
   <time name="total">  449.20  452.07</time>
   <energy>
    <i name="e_fr_energy">    -36.89934307 </i>
    <i name="e_wo_entrp">    -36.89934296 </i>
    <i name="e_0_energy">    -36.89934301 </i>
   </energy>
  </scstep>
  <scstep>
   <time name="diag">   81.55   81.70</time>
   <time name="diis">  337.05  340.24</time>
   <time name="orth">    3.08    3.11</time>
   <time name="total">  455.40  459.10</time>
   <energy>
    <i name="e_fr_energy">    -36.89963092 </i>
    <i name="e_wo_entrp">    -36.89963074 </i>
    <i name="e_0_energy">    -36.89963083 </i>
   </energy>
  </scstep>
  <scstep>
   <time name="diag">   80.79   81.62</time>
   <time name="diis">  333.42  335.87</time>
   <time name="orth">    3.09    3.09</time>
   <time name="total">  451.08  454.88</time>
   <energy>
    <i name="e_fr_energy">    -36.90066339 </i>
    <i name="e_wo_entrp">    -36.90063587 </i>
    <i name="e_0_energy">    -36.90064963 </i>
   </energy>
  </scstep>
  <scstep>
   <time name="diag">   80.99   81.66</time>
   <time name="diis">  355.18  355.95</time>
   <time name="orth">    3.08    3.09</time>
   <time name="total">  473.08  474.66</time>
   <energy>
    <i name="e_fr_energy">    -36.90151804 </i>
    <i name="e_wo_entrp">    -36.90149056 </i>
    <i name="e_0_energy">    -36.90150430 </i>
   </energy>
  </scstep>
  <scstep>
   <time name="diag">   81.20   81.54</time>
   <time name="diis">  330.14  333.74</time>
   <time name="orth">    3.07    3.10</time>
   <time name="total">  448.30  452.38</time>
   <energy>
    <i name="e_fr_energy">    -36.91287743 </i>
    <i name="e_wo_entrp">    -36.91284995 </i>
    <i name="e_0_energy">    -36.91286369 </i>
   </energy>
  </scstep>
  <scstep>
   <time name="diag">   81.11   81.54</time>
   <time name="diis">  328.96  332.90</time>
   <time name="orth">    3.07    3.07</time>
   <time name="total">  446.57  452.04</time>
   <energy>
    <i name="e_fr_energy">    -36.91409200 </i>
    <i name="e_wo_entrp">    -36.91406454 </i>
    <i name="e_0_energy">    -36.91407827 </i>
   </energy>
  </scstep>
  <scstep>
   <time name="diag">   81.30   81.59</time>
   <time name="diis">  333.01  333.48</time>
   <time name="orth">    3.08    3.09</time>
   <time name="total">  451.28  452.13</time>
   <energy>
    <i name="e_fr_energy">    -36.91414754 </i>
    <i name="e_wo_entrp">    -36.91412011 </i>
    <i name="e_0_energy">    -36.91413383 </i>
   </energy>
  </scstep>
  <scstep>
   <time name="diag">   81.54   81.66</time>
   <time name="diis">  336.63  337.34</time>
   <time name="orth">    3.08    3.09</time>
   <time name="total">  455.01  456.12</time>
   <energy>
    <i name="e_fr_energy">    -36.91414956 </i>
    <i name="e_wo_entrp">    -36.91412214 </i>
    <i name="e_0_energy">    -36.91413585 </i>
   </energy>
  </scstep>
  <scstep>
   <time name="diag">   81.18   81.75</time>
   <time name="diis">  327.21  330.76</time>
   <time name="orth">    3.09    3.09</time>
   <time name="total">  445.32  452.84</time>
   <energy>
    <i name="e_fr_energy">    -36.91414977 </i>
    <i name="e_wo_entrp">    -36.91412233 </i>
    <i name="e_0_energy">    -36.91413605 </i>
   </energy>
  </scstep>
  <scstep>
   <time name="diag">   81.21   81.69</time>
   <time name="diis">  330.13  331.14</time>
   <time name="orth">    3.07    3.09</time>
   <time name="total">  448.26  449.97</time>
   <energy>
    <i name="e_fr_energy">    -36.91415167 </i>
    <i name="e_wo_entrp">    -36.91412414 </i>
    <i name="e_0_energy">    -36.91413791 </i>
   </energy>
  </scstep>
  <scstep>
   <time name="diag">   81.57   81.72</time>
   <time name="diis">  330.57  330.91</time>
   <time name="orth">    3.09    3.09</time>
   <time name="total">  449.18  449.70</time>
   <energy>
    <i name="e_fr_energy">    -36.91415535 </i>
    <i name="e_wo_entrp">    -36.91412767 </i>
    <i name="e_0_energy">    -36.91414151 </i>
   </energy>
  </scstep>
  <scstep>
   <time name="diag">   81.20   81.74</time>
   <time name="diis">  328.00  330.93</time>
   <time name="orth">    3.08    3.09</time>
   <time name="total">  445.94  449.88</time>
   <energy>
    <i name="e_fr_energy">    -36.91415931 </i>
    <i name="e_wo_entrp">    -36.91413145 </i>
    <i name="e_0_energy">    -36.91414538 </i>
   </energy>
  </scstep>
  <scstep>
   <time name="diag">   81.33   81.73</time>
   <time name="diis">  356.30  357.60</time>
   <time name="orth">    3.09    3.09</time>
   <time name="total">  474.62  476.40</time>
   <energy>
    <i name="e_fr_energy">    -36.91415937 </i>
    <i name="e_wo_entrp">    -36.91413151 </i>
    <i name="e_0_energy">    -36.91414544 </i>
   </energy>
  </scstep>
  <scstep>
   <time name="diag">   81.67   81.69</time>
   <time name="diis">  334.67  334.74</time>
   <time name="orth">    3.09    3.09</time>
   <time name="total">  453.30  453.53</time>
   <energy>
    <i name="e_fr_energy">    -36.91415920 </i>
    <i name="e_wo_entrp">    -36.91413134 </i>
    <i name="e_0_energy">    -36.91414527 </i>
   </energy>
  </scstep>
  <scstep>
   <time name="diag">   81.69   81.71</time>
   <time name="diis">  332.35  332.50</time>
   <time name="orth">    3.09    3.09</time>
   <time name="total">  451.09  451.30</time>
   <energy>
    <i name="e_fr_energy">    -36.91415900 </i>
    <i name="e_wo_entrp">    -36.91413114 </i>
    <i name="e_0_energy">    -36.91414507 </i>
   </energy>
  </scstep>
  <scstep>
   <time name="diag">   81.70   81.72</time>
   <time name="diis">  332.35  332.80</time>
   <time name="orth">    3.07    3.07</time>
   <time name="total">  450.85  452.72</time>
   <energy>
    <i name="e_fr_energy">    -36.91415868 </i>
    <i name="e_wo_entrp">    -36.91413082 </i>
    <i name="e_0_energy">    -36.91414475 </i>
   </energy>
  </scstep>
  <scstep>
   <time name="diag">   81.69   81.71</time>
   <time name="diis">  333.72  333.87</time>
   <time name="orth">    3.09    3.09</time>
   <time name="total">  452.40  452.63</time>
   <energy>
    <i name="e_fr_energy">    -36.91415859 </i>
    <i name="e_wo_entrp">    -36.91413074 </i>
    <i name="e_0_energy">    -36.91414467 </i>
   </energy>
  </scstep>
  <scstep>
   <time name="diag">   81.58   81.60</time>
   <time name="diis">  332.82  333.06</time>
   <time name="orth">    3.07    3.08</time>
   <time name="total">  450.46  451.15</time>
   <energy>
    <i name="e_fr_energy">    -36.91415821 </i>
    <i name="e_wo_entrp">    -36.91413038 </i>
    <i name="e_0_energy">    -36.91414429 </i>
   </energy>
  </scstep>
  <scstep>
   <time name="diag">   81.50   81.55</time>
   <time name="diis">  330.43  331.14</time>
   <time name="orth">    3.08    3.10</time>
   <time name="total">  447.98  448.91</time>
   <energy>
    <i name="e_fr_energy">    -36.91415803 </i>
    <i name="e_wo_entrp">    -36.91413021 </i>
    <i name="e_0_energy">    -36.91414412 </i>
   </energy>
  </scstep>
  <scstep>
   <time name="diag">   81.52   81.55</time>
   <time name="diis">  332.11  332.18</time>
   <time name="orth">    3.09    3.09</time>
   <time name="total">  449.14  449.26</time>
   <energy>
    <i name="e_fr_energy">    -36.91415791 </i>
    <i name="e_wo_entrp">    -36.91413010 </i>
    <i name="e_0_energy">    -36.91414401 </i>
   </energy>
  </scstep>
  <scstep>
   <time name="diag">   81.52   81.56</time>
   <time name="diis">  333.20  333.31</time>
   <time name="orth">    3.09    3.09</time>
   <time name="total">  450.90  451.09</time>
   <energy>
    <i name="e_fr_energy">    -36.91415790 </i>
    <i name="e_wo_entrp">    -36.91413011 </i>
    <i name="e_0_energy">    -36.91414400 </i>
   </energy>
  </scstep>
  <scstep>
   <time name="diag">   81.54   81.55</time>
   <time name="diis">  343.93  344.00</time>
   <time name="orth">    3.08    3.08</time>
   <time name="total">  461.32  461.41</time>
   <energy>
    <i name="e_fr_energy">    -36.91415798 </i>
    <i name="e_wo_entrp">    -36.91413019 </i>
    <i name="e_0_energy">    -36.91414408 </i>
   </energy>
  </scstep>
  <scstep>
   <time name="diag">   81.58   81.60</time>
   <time name="diis">  328.62  328.69</time>
   <time name="orth">    3.11    3.11</time>
   <time name="total">  446.02  446.87</time>
   <energy>
    <i name="e_fr_energy">    -36.91415801 </i>
    <i name="e_wo_entrp">    -36.91413023 </i>
    <i name="e_0_energy">    -36.91414412 </i>
   </energy>
  </scstep>
  <scstep>
   <time name="diag">   81.55   81.57</time>
   <time name="diis">  257.11  257.93</time>
   <time name="orth">    3.10    3.10</time>
   <time name="total">  374.64  375.57</time>
   <energy>
    <i name="e_fr_energy">    -36.91415802 </i>
    <i name="e_wo_entrp">    -36.91413023 </i>
    <i name="e_0_energy">    -36.91414412 </i>
   </energy>
  </scstep>
  <scstep>
   <time name="diag">   81.52   81.56</time>
   <time name="diis">  220.11  220.27</time>
   <time name="orth">    3.07    3.08</time>
   <time name="total">  337.48  337.72</time>
   <energy>
    <i name="e_fr_energy">    -36.91415801 </i>
    <i name="e_wo_entrp">    -36.91413023 </i>
    <i name="e_0_energy">    -36.91414412 </i>
   </energy>
  </scstep>
  <scstep>
   <time name="diag">   81.43   81.52</time>
   <time name="diis">  204.55  205.84</time>
   <time name="orth">    3.08    3.08</time>
   <time name="total">  321.20  322.85</time>
   <energy>
    <i name="e_fr_energy">    -36.91415801 </i>
    <i name="e_wo_entrp">    -36.91413023 </i>
    <i name="e_0_energy">    -36.91414412 </i>
   </energy>
  </scstep>
  <scstep>
   <time name="diag">   80.97   81.58</time>
   <time name="diis">  197.82  198.44</time>
   <time name="orth">    3.08    3.08</time>
   <time name="total">  284.37  285.63</time>
   <energy>
    <i name="alphaZ">      6.18334092 </i>
    <i name="ewald">   2530.02291488 </i>
    <i name="hartreedc">  -3024.10942331 </i>
    <i name="XCdc">     57.36654091 </i>
    <i name="pawpsdc">    273.66170517 </i>
    <i name="pawaedc">   -278.79503329 </i>
    <i name="eentropy">     -0.00002779 </i>
    <i name="bandstr">   -189.86770241 </i>
    <i name="atom">    588.62352690 </i>
    <i name="e_fr_energy">    -36.91415801 </i>
    <i name="e_wo_entrp">    -36.91413023 </i>
    <i name="e_0_energy">    -36.91414412 </i>
   </energy>
  </scstep>
  <structure>
   <crystal>
    <varray name="basis" >
     <v>       4.31684647       0.00000000       0.00000000 </v>
     <v>       0.00000000       2.46276166       0.00000000 </v>
     <v>       0.00000000       0.00000000      19.83168873 </v>
    </varray>
    <i name="volume">    210.83790140 </i>
    <varray name="rec_basis" >
     <v>       0.23165058       0.00000000       0.00000000 </v>
     <v>       0.00000000       0.40604822       0.00000000 </v>
     <v>       0.00000000       0.00000000       0.05042435 </v>
    </varray>
   </crystal>
   <varray name="positions" >
    <v>       0.99975412       0.00000000       0.00000000 </v>
    <v>       0.16691255       0.50000000       0.00000000 </v>
    <v>       0.49975412       0.50000000       0.00000000 </v>
    <v>       0.66691255       0.00000000       0.00000000 </v>
   </varray>
  </structure>
  <varray name="forces" >
   <v>      -0.00111036       0.00000000      -0.00000000 </v>
   <v>       0.00111036      -0.00000000       0.00000000 </v>
   <v>      -0.00111036      -0.00000000      -0.00000000 </v>
   <v>       0.00111036       0.00000000       0.00000000 </v>
  </varray>
  <varray name="stress" >
   <v>     -17.00854888       0.00000000       0.00000000 </v>
   <v>       0.00000000       0.00641741       0.00000000 </v>
   <v>       0.00000000       0.00000000      -0.01033625 </v>
  </varray>
  <energy>
   <i name="e_fr_energy">    -36.91415801 </i>
   <i name="e_wo_entrp">    -36.91414412 </i>
   <i name="e_0_energy">     -0.00002779 </i>
  </energy>
  <time name="totalsc">16629.5717144.48</time>
 </calculation>
 <calculation>
  <scstep>
   <time name="dav">  336.11  337.96</time>
   <time name="total">  368.87  370.89</time>
   <energy>
    <i name="alphaZ">      6.18334092 </i>
    <i name="ewald">   2530.02244127 </i>
    <i name="hartreedc">  -3024.10917243 </i>
    <i name="XCdc">     57.36652636 </i>
    <i name="pawpsdc">    273.66168925 </i>
    <i name="pawaedc">   -278.79501714 </i>
    <i name="eentropy">     -0.00002887 </i>
    <i name="bandstr">   -189.86746392 </i>
    <i name="atom">    588.62352690 </i>
    <i name="e_fr_energy">    -36.91415766 </i>
    <i name="e_wo_entrp">    -36.91412879 </i>
    <i name="e_0_energy">    -36.91414323 </i>
   </energy>
  </scstep>
  <scstep>
   <time name="diag">   81.41   81.60</time>
   <time name="diis">  330.04  330.51</time>
   <time name="orth">    3.07    3.08</time>
   <time name="total">  447.43  448.14</time>
   <energy>
    <i name="e_fr_energy">    -36.91415768 </i>
    <i name="e_wo_entrp">    -36.91412885 </i>
    <i name="e_0_energy">    -36.91414326 </i>
   </energy>
  </scstep>
  <scstep>
   <time name="diag">   81.18   81.55</time>
   <time name="diis">  332.40  332.83</time>
   <time name="orth">    3.08    3.08</time>
   <time name="total">  449.24  450.26</time>
   <energy>
    <i name="e_fr_energy">    -36.91415766 </i>
    <i name="e_wo_entrp">    -36.91412889 </i>
    <i name="e_0_energy">    -36.91414328 </i>
   </energy>
  </scstep>
  <scstep>
   <time name="diag">   80.80   81.48</time>
   <time name="diis">  337.80  339.94</time>
   <time name="orth">    3.09    3.09</time>
   <time name="total">  454.11  457.16</time>
   <energy>
    <i name="e_fr_energy">    -36.91415766 </i>
    <i name="e_wo_entrp">    -36.91412888 </i>
    <i name="e_0_energy">    -36.91414327 </i>
   </energy>
  </scstep>
  <scstep>
   <time name="diag">   81.46   81.57</time>
   <time name="diis">  253.72  254.10</time>
   <time name="orth">    3.10    3.10</time>
   <time name="total">  370.78  371.34</time>
   <energy>
    <i name="e_fr_energy">    -36.91415766 </i>
    <i name="e_wo_entrp">    -36.91412887 </i>
    <i name="e_0_energy">    -36.91414327 </i>
   </energy>
  </scstep>
  <scstep>
   <time name="diag">   81.18   81.57</time>
   <time name="diis">  217.82  219.32</time>
   <time name="orth">    3.08    3.08</time>
   <time name="total">  304.57  306.71</time>
   <energy>
    <i name="alphaZ">      6.18334092 </i>
    <i name="ewald">   2530.02244127 </i>
    <i name="hartreedc">  -3024.10899018 </i>
    <i name="XCdc">     57.36651838 </i>
    <i name="pawpsdc">    273.66087103 </i>
    <i name="pawaedc">   -278.79419522 </i>
    <i name="eentropy">     -0.00002878 </i>
    <i name="bandstr">   -189.86764199 </i>
    <i name="atom">    588.62352690 </i>
    <i name="e_fr_energy">    -36.91415766 </i>
    <i name="e_wo_entrp">    -36.91412888 </i>
    <i name="e_0_energy">    -36.91414327 </i>
   </energy>
  </scstep>
  <structure>
   <crystal>
    <varray name="basis" >
     <v>       4.31684647       0.00000000       0.00000000 </v>
     <v>       0.00000000       2.46276166       0.00000000 </v>
     <v>       0.00000000       0.00000000      19.83168873 </v>
    </varray>
    <i name="volume">    210.83790140 </i>
    <varray name="rec_basis" >
     <v>       0.23165058       0.00000000       0.00000000 </v>
     <v>       0.00000000       0.40604822       0.00000000 </v>
     <v>       0.00000000       0.00000000       0.05042435 </v>
    </varray>
   </crystal>
   <varray name="positions" >
    <v>       0.99974171       0.00000000      -0.00000000 </v>
    <v>       0.16692496       0.50000000       0.00000000 </v>
    <v>       0.49974171       0.50000000      -0.00000000 </v>
    <v>       0.66692496       0.00000000       0.00000000 </v>
   </varray>
  </structure>
  <varray name="forces" >
   <v>       0.00438521       0.00000000       0.00000000 </v>
   <v>      -0.00438521      -0.00000000      -0.00000000 </v>
   <v>       0.00438521      -0.00000000       0.00000000 </v>
   <v>      -0.00438521      -0.00000000      -0.00000000 </v>
  </varray>
  <varray name="stress" >
   <v>     -16.99458157       0.00000000       0.00000000 </v>
   <v>       0.00000000      -0.01121828       0.00000000 </v>
   <v>       0.00000000       0.00000000      -0.01018870 </v>
  </varray>
  <energy>
   <i name="e_fr_energy">    -36.91415766 </i>
   <i name="e_wo_entrp">    -36.91414327 </i>
   <i name="e_0_energy">     -0.00002878 </i>
  </energy>
  <time name="totalsc"> 2498.70 2508.85</time>
 </calculation>
 <calculation>
  <scstep>
   <time name="dav">  306.74  308.01</time>
   <time name="total">  339.57  341.09</time>
   <energy>
    <i name="alphaZ">      6.18334092 </i>
    <i name="ewald">   2530.02281887 </i>
    <i name="hartreedc">  -3024.10914645 </i>
    <i name="XCdc">     57.36652895 </i>
    <i name="pawpsdc">    273.66086835 </i>
    <i name="pawaedc">   -278.79419251 </i>
    <i name="eentropy">     -0.00002792 </i>
    <i name="bandstr">   -189.86787515 </i>
    <i name="atom">    588.62352690 </i>
    <i name="e_fr_energy">    -36.91415803 </i>
    <i name="e_wo_entrp">    -36.91413011 </i>
    <i name="e_0_energy">    -36.91414407 </i>
   </energy>
  </scstep>
  <scstep>
   <time name="diag">   81.16   81.65</time>
   <time name="diis">  331.62  332.66</time>
   <time name="orth">    3.08    3.09</time>
   <time name="total">  448.80  450.50</time>
   <energy>
    <i name="e_fr_energy">    -36.91415805 </i>
    <i name="e_wo_entrp">    -36.91413010 </i>
    <i name="e_0_energy">    -36.91414407 </i>
   </energy>
  </scstep>
  <scstep>
   <time name="diag">   81.18   81.63</time>
   <time name="diis">  332.93  335.65</time>
   <time name="orth">    3.07    3.07</time>
   <time name="total">  450.05  453.47</time>
   <energy>
    <i name="e_fr_energy">    -36.91415804 </i>
    <i name="e_wo_entrp">    -36.91413004 </i>
    <i name="e_0_energy">    -36.91414404 </i>
   </energy>
  </scstep>
  <scstep>
   <time name="diag">   81.08   81.61</time>
   <time name="diis">  339.09  341.03</time>
   <time name="orth">    3.07    3.09</time>
   <time name="total">  455.61  458.55</time>
   <energy>
    <i name="e_fr_energy">    -36.91415804 </i>
    <i name="e_wo_entrp">    -36.91413005 </i>
    <i name="e_0_energy">    -36.91414404 </i>
   </energy>
  </scstep>
  <scstep>
   <time name="diag">   80.73   81.55</time>
   <time name="diis">  239.89  242.58</time>
   <time name="orth">    3.07    3.09</time>
   <time name="total">  356.67  360.62</time>
   <energy>
    <i name="e_fr_energy">    -36.91415804 </i>
    <i name="e_wo_entrp">    -36.91413005 </i>
    <i name="e_0_energy">    -36.91414405 </i>
   </energy>
  </scstep>
  <scstep>
   <time name="diag">   81.36   81.62</time>
   <time name="diis">  217.61  218.12</time>
   <time name="orth">    3.07    3.07</time>
   <time name="total">  335.08  335.96</time>
   <energy>
    <i name="e_fr_energy">    -36.91415804 </i>
    <i name="e_wo_entrp">    -36.91413005 </i>
    <i name="e_0_energy">    -36.91414404 </i>
   </energy>
  </scstep>
  <scstep>
   <time name="diag">   81.40   81.55</time>
   <time name="diis">  215.38  215.92</time>
   <time name="orth">    3.09    3.10</time>
   <time name="total">  332.81  333.75</time>
   <energy>
    <i name="e_fr_energy">    -36.91415804 </i>
    <i name="e_wo_entrp">    -36.91413005 </i>
    <i name="e_0_energy">    -36.91414404 </i>
   </energy>
  </scstep>
  <scstep>
   <time name="diag">   80.71   81.57</time>
   <time name="diis">  200.85  202.92</time>
   <time name="orth">    3.08    3.08</time>
   <time name="total">  317.47  320.78</time>
   <energy>
    <i name="e_fr_energy">    -36.91415804 </i>
    <i name="e_wo_entrp">    -36.91413005 </i>
    <i name="e_0_energy">    -36.91414404 </i>
   </energy>
  </scstep>
  <scstep>
   <time name="diag">   80.98   81.52</time>
   <time name="diis">  190.55  191.81</time>
   <time name="orth">    3.10    3.10</time>
   <time name="total">  277.05  278.97</time>
   <energy>
    <i name="alphaZ">      6.18334092 </i>
    <i name="ewald">   2530.02281887 </i>
    <i name="hartreedc">  -3024.10928305 </i>
    <i name="XCdc">     57.36653528 </i>
    <i name="pawpsdc">    273.66152176 </i>
    <i name="pawaedc">   -278.79484880 </i>
    <i name="eentropy">     -0.00002798 </i>
    <i name="bandstr">   -189.86774193 </i>
    <i name="atom">    588.62352690 </i>
    <i name="e_fr_energy">    -36.91415804 </i>
    <i name="e_wo_entrp">    -36.91413005 </i>
    <i name="e_0_energy">    -36.91414404 </i>
   </energy>
  </scstep>
  <structure>
   <crystal>
    <varray name="basis" >
     <v>       4.31684647       0.00000000       0.00000000 </v>
     <v>       0.00000000       2.46276166       0.00000000 </v>
     <v>       0.00000000       0.00000000      19.83168873 </v>
    </varray>
    <i name="volume">    210.83790140 </i>
    <varray name="rec_basis" >
     <v>       0.23165058       0.00000000       0.00000000 </v>
     <v>       0.00000000       0.40604822       0.00000000 </v>
     <v>       0.00000000       0.00000000       0.05042435 </v>
    </varray>
   </crystal>
   <varray name="positions" >
    <v>       0.99975161       0.00000000      -0.00000000 </v>
    <v>       0.16691506       0.50000000       0.00000000 </v>
    <v>       0.49975161       0.50000000      -0.00000000 </v>
    <v>       0.66691506       0.00000000       0.00000000 </v>
   </varray>
  </structure>
  <varray name="forces" >
   <v>       0.00000283      -0.00000000       0.00000000 </v>
   <v>      -0.00000283       0.00000000       0.00000000 </v>
   <v>       0.00000283      -0.00000000       0.00000000 </v>
   <v>      -0.00000283       0.00000000       0.00000000 </v>
  </varray>
  <varray name="stress" >
   <v>     -17.00568225       0.00000000       0.00000000 </v>
   <v>       0.00000000       0.00278880       0.00000000 </v>
   <v>       0.00000000       0.00000000      -0.01013204 </v>
  </varray>
  <energy>
   <i name="e_fr_energy">    -36.91415804 </i>
   <i name="e_wo_entrp">    -36.91414404 </i>
   <i name="e_0_energy">     -0.00002798 </i>
  </energy>
  <time name="totalsc"> 3416.21 3437.10</time>
 </calculation>
 <calculation>
  <scstep>
   <time name="dav">  249.02  249.30</time>
   <time name="total">  282.02  282.42</time>
   <energy>
    <i name="alphaZ">      6.18334092 </i>
    <i name="ewald">   2530.02281911 </i>
    <i name="hartreedc">  -3024.10928615 </i>
    <i name="XCdc">     57.36653530 </i>
    <i name="pawpsdc">    273.66152095 </i>
    <i name="pawaedc">   -278.79484798 </i>
    <i name="eentropy">     -0.00002798 </i>
    <i name="bandstr">   -189.86773911 </i>
    <i name="atom">    588.62352690 </i>
    <i name="e_fr_energy">    -36.91415804 </i>
    <i name="e_wo_entrp">    -36.91413005 </i>
    <i name="e_0_energy">    -36.91414404 </i>
   </energy>
  </scstep>
  <scstep>
   <time name="diag">   80.84   81.68</time>
   <time name="diis">  153.12  154.38</time>
   <time name="orth">    3.09    3.10</time>
   <time name="total">  269.31  271.81</time>
   <energy>
    <i name="e_fr_energy">    -36.91415804 </i>
    <i name="e_wo_entrp">    -36.91413005 </i>
    <i name="e_0_energy">    -36.91414405 </i>
   </energy>
  </scstep>
  <scstep>
   <time name="diag">   81.37   81.64</time>
   <time name="diis">  152.03  152.44</time>
   <time name="orth">    3.09    3.10</time>
   <time name="total">  269.26  270.02</time>
   <energy>
    <i name="e_fr_energy">    -36.91415804 </i>
    <i name="e_wo_entrp">    -36.91413005 </i>
    <i name="e_0_energy">    -36.91414405 </i>
   </energy>
  </scstep>
  <scstep>
   <time name="diag">   81.54   81.63</time>
   <time name="diis">  149.73  150.92</time>
   <time name="orth">    3.08    3.08</time>
   <time name="total">  266.88  268.48</time>
   <energy>
    <i name="e_fr_energy">    -36.91415804 </i>
    <i name="e_wo_entrp">    -36.91413005 </i>
    <i name="e_0_energy">    -36.91414405 </i>
   </energy>
  </scstep>
  <scstep>
   <time name="diag">   80.86   81.66</time>
   <time name="diis">  149.17  149.49</time>
   <time name="orth">    3.09    3.10</time>
   <time name="total">  265.74  267.16</time>
   <energy>
    <i name="e_fr_energy">    -36.91415804 </i>
    <i name="e_wo_entrp">    -36.91413005 </i>
    <i name="e_0_energy">    -36.91414405 </i>
   </energy>
  </scstep>
  <scstep>
   <time name="diag">   81.62   81.64</time>
   <time name="diis">  153.02  153.06</time>
   <time name="orth">    3.12    3.12</time>
   <time name="total">  240.29  240.37</time>
   <energy>
    <i name="alphaZ">      6.18334092 </i>
    <i name="ewald">   2530.02281911 </i>
    <i name="hartreedc">  -3024.10928638 </i>
    <i name="XCdc">     57.36653528 </i>
    <i name="pawpsdc">    273.66152092 </i>
    <i name="pawaedc">   -278.79484796 </i>
    <i name="eentropy">     -0.00002798 </i>
    <i name="bandstr">   -189.86773886 </i>
    <i name="atom">    588.62352690 </i>
    <i name="e_fr_energy">    -36.91415804 </i>
    <i name="e_wo_entrp">    -36.91413005 </i>
    <i name="e_0_energy">    -36.91414405 </i>
   </energy>
  </scstep>
  <structure>
   <crystal>
    <varray name="basis" >
     <v>       4.31684647       0.00000000       0.00000000 </v>
     <v>       0.00000000       2.46276166       0.00000000 </v>
     <v>       0.00000000       0.00000000      19.83168873 </v>
    </varray>
    <i name="volume">    210.83790140 </i>
    <varray name="rec_basis" >
     <v>       0.23165058       0.00000000       0.00000000 </v>
     <v>       0.00000000       0.40604822       0.00000000 </v>
     <v>       0.00000000       0.00000000       0.05042435 </v>
    </varray>
   </crystal>
   <varray name="positions" >
    <v>       0.99975162      -0.00000000      -0.00000000 </v>
    <v>       0.16691505       0.50000000       0.00000000 </v>
    <v>       0.49975162       0.50000000      -0.00000000 </v>
    <v>       0.66691505       0.00000000       0.00000000 </v>
   </varray>
  </structure>
  <varray name="forces" >
   <v>      -0.00000215       0.00000000       0.00000000 </v>
   <v>       0.00000215      -0.00000000      -0.00000000 </v>
   <v>      -0.00000215       0.00000000       0.00000000 </v>
   <v>       0.00000215      -0.00000000      -0.00000000 </v>
  </varray>
  <varray name="stress" >
   <v>     -17.00570189       0.00000000       0.00000000 </v>
   <v>       0.00000000       0.00281584       0.00000000 </v>
   <v>       0.00000000       0.00000000      -0.01014589 </v>
  </varray>
  <energy>
   <i name="e_fr_energy">    -36.91415804 </i>
   <i name="e_wo_entrp">    -36.91414405 </i>
   <i name="e_0_energy">     -0.00002798 </i>
  </energy>
  <time name="totalsc"> 1697.83 1704.68</time>
 </calculation>
 <calculation>
  <scstep>
   <time name="dav">  248.23  248.30</time>
   <time name="total">  281.76  281.84</time>
   <energy>
    <i name="alphaZ">      6.18334092 </i>
    <i name="ewald">   2530.02281901 </i>
    <i name="hartreedc">  -3024.10928649 </i>
    <i name="XCdc">     57.36653528 </i>
    <i name="pawpsdc">    273.66152093 </i>
    <i name="pawaedc">   -278.79484797 </i>
    <i name="eentropy">     -0.00002798 </i>
    <i name="bandstr">   -189.86773864 </i>
    <i name="atom">    588.62352690 </i>
    <i name="e_fr_energy">    -36.91415804 </i>
    <i name="e_wo_entrp">    -36.91413005 </i>
    <i name="e_0_energy">    -36.91414404 </i>
   </energy>
  </scstep>
  <scstep>
   <time name="diag">   81.55   81.57</time>
   <time name="diis">  150.40  150.44</time>
   <time name="orth">    3.10    3.10</time>
   <time name="total">  268.97  269.04</time>
   <energy>
    <i name="e_fr_energy">    -36.91415804 </i>
    <i name="e_wo_entrp">    -36.91413005 </i>
    <i name="e_0_energy">    -36.91414404 </i>
   </energy>
  </scstep>
  <scstep>
   <time name="diag">   81.59   81.63</time>
   <time name="diis">  151.28  151.31</time>
   <time name="orth">    3.10    3.10</time>
   <time name="total">  269.89  269.99</time>
   <energy>
    <i name="e_fr_energy">    -36.91415804 </i>
    <i name="e_wo_entrp">    -36.91413005 </i>
    <i name="e_0_energy">    -36.91414404 </i>
   </energy>
  </scstep>
  <scstep>
   <time name="diag">   81.54   81.56</time>
   <time name="diis">  143.09  143.12</time>
   <time name="orth">    3.11    3.11</time>
   <time name="total">  261.67  261.74</time>
   <energy>
    <i name="e_fr_energy">    -36.91415804 </i>
    <i name="e_wo_entrp">    -36.91413005 </i>
    <i name="e_0_energy">    -36.91414405 </i>
   </energy>
  </scstep>
  <scstep>
   <time name="diag">   81.53   81.57</time>
   <time name="diis">  148.17  148.21</time>
   <time name="orth">    3.08    3.08</time>
   <time name="total">  266.66  266.93</time>
   <energy>
    <i name="e_fr_energy">    -36.91415804 </i>
    <i name="e_wo_entrp">    -36.91413005 </i>
    <i name="e_0_energy">    -36.91414405 </i>
   </energy>
  </scstep>
  <scstep>
   <time name="diag">   81.18   81.60</time>
   <time name="diis">  142.88  143.56</time>
   <time name="orth">    3.08    3.10</time>
   <time name="total">  260.84  262.11</time>
   <energy>
    <i name="e_fr_energy">    -36.91415804 </i>
    <i name="e_wo_entrp">    -36.91413005 </i>
    <i name="e_0_energy">    -36.91414404 </i>
   </energy>
  </scstep>
  <scstep>
   <time name="diag">   81.43   81.59</time>
   <time name="diis">  144.54  144.73</time>
   <time name="orth">    3.08    3.08</time>
   <time name="total">  262.52  263.04</time>
   <energy>
    <i name="e_fr_energy">    -36.91415804 </i>
    <i name="e_wo_entrp">    -36.91413005 </i>
    <i name="e_0_energy">    -36.91414404 </i>
   </energy>
  </scstep>
  <scstep>
   <time name="diag">   81.38   81.55</time>
   <time name="diis">  141.45  141.78</time>
   <time name="orth">    3.08    3.08</time>
   <time name="total">  228.46  228.97</time>
   <energy>
    <i name="alphaZ">      6.18334092 </i>
    <i name="ewald">   2530.02281901 </i>
    <i name="hartreedc">  -3024.10928711 </i>
    <i name="XCdc">     57.36653528 </i>
    <i name="pawpsdc">    273.66152101 </i>
    <i name="pawaedc">   -278.79484804 </i>
    <i name="eentropy">     -0.00002798 </i>
    <i name="bandstr">   -189.86773803 </i>
    <i name="atom">    588.62352690 </i>
    <i name="e_fr_energy">    -36.91415804 </i>
    <i name="e_wo_entrp">    -36.91413005 </i>
    <i name="e_0_energy">    -36.91414405 </i>
   </energy>
  </scstep>
  <structure>
   <crystal>
    <varray name="basis" >
     <v>       4.31684647       0.00000000       0.00000000 </v>
     <v>       0.00000000       2.46276166       0.00000000 </v>
     <v>       0.00000000       0.00000000      19.83168873 </v>
    </varray>
    <i name="volume">    210.83790140 </i>
    <varray name="rec_basis" >
     <v>       0.23165058       0.00000000       0.00000000 </v>
     <v>       0.00000000       0.40604822       0.00000000 </v>
     <v>       0.00000000       0.00000000       0.05042435 </v>
    </varray>
   </crystal>
   <varray name="positions" >
    <v>       0.99975162       0.00000000      -0.00000000 </v>
    <v>       0.16691505       0.50000000       0.00000000 </v>
    <v>       0.49975162       0.50000000      -0.00000000 </v>
    <v>       0.66691505       0.00000000       0.00000000 </v>
   </varray>
  </structure>
  <varray name="forces" >
   <v>      -0.00000023      -0.00000000       0.00000000 </v>
   <v>       0.00000023       0.00000000       0.00000000 </v>
   <v>      -0.00000023       0.00000000       0.00000000 </v>
   <v>       0.00000023       0.00000000       0.00000000 </v>
  </varray>
  <varray name="stress" >
   <v>     -17.00570079       0.00000000       0.00000000 </v>
   <v>       0.00000000       0.00281123       0.00000000 </v>
   <v>       0.00000000       0.00000000      -0.01014262 </v>
  </varray>
  <energy>
   <i name="e_fr_energy">    -36.91415804 </i>
   <i name="e_wo_entrp">    -36.91414405 </i>
   <i name="e_0_energy">     -0.00002798 </i>
  </energy>
  <time name="totalsc"> 2196.80 2200.15</time>
  <eigenvalues>
   <array>
    <dimension dim="1">band</dimension>
    <dimension dim="2">kpoint</dimension>
    <dimension dim="3">spin</dimension>
    <field>eigene</field>
    <field>occ</field>
    <set>
     <set comment="spin 1">
      <set comment="kpoint 1">
       <r>  -22.1833    1.0000 </r>
       <r>  -17.1212    1.0000 </r>
       <r>  -15.9181    1.0000 </r>
       <r>  -10.3046    1.0000 </r>
       <r>   -9.0104    1.0000 </r>
       <r>   -5.8791    1.0000 </r>
       <r>   -5.7607    1.0000 </r>
       <r>   -5.2048    1.0000 </r>
       <r>   -1.1226    0.0000 </r>
       <r>    0.5323    0.0000 </r>
       <r>    1.3322    0.0000 </r>
       <r>    1.7193    0.0000 </r>
      </set>
      <set comment="kpoint 2">
       <r>  -22.1732    1.0000 </r>
       <r>  -17.2643    1.0000 </r>
       <r>  -15.7599    1.0000 </r>
       <r>  -10.2926    1.0000 </r>
       <r>   -9.0005    1.0000 </r>
       <r>   -5.9225    1.0000 </r>
       <r>   -5.7822    1.0000 </r>
       <r>   -5.2680    1.0000 </r>
       <r>   -1.0434    0.0000 </r>
       <r>    0.5459    0.0000 </r>
       <r>    1.3460    0.0000 </r>
       <r>    1.7332    0.0000 </r>
      </set>
      <set comment="kpoint 3">
       <r>  -22.1431    1.0000 </r>
       <r>  -17.5742    1.0000 </r>
       <r>  -15.4046    1.0000 </r>
       <r>  -10.2567    1.0000 </r>
       <r>   -8.9709    1.0000 </r>
       <r>   -6.0508    1.0000 </r>
       <r>   -5.8456    1.0000 </r>
       <r>   -5.4440    1.0000 </r>
       <r>   -0.8199    0.0000 </r>
       <r>    0.5867    0.0000 </r>
       <r>    1.3874    0.0000 </r>
       <r>    1.7751    0.0000 </r>
      </set>
      <set comment="kpoint 4">
       <r>  -22.0929    1.0000 </r>
       <r>  -17.9319    1.0000 </r>
       <r>  -14.9716    1.0000 </r>
       <r>  -10.1970    1.0000 </r>
       <r>   -8.9218    1.0000 </r>
       <r>   -6.2587    1.0000 </r>
       <r>   -5.9476    1.0000 </r>
       <r>   -5.7022    1.0000 </r>
       <r>   -0.4831    0.0000 </r>
       <r>    0.6548    0.0000 </r>
       <r>    1.4563    0.0000 </r>
       <r>    1.8450    0.0000 </r>
      </set>
      <set comment="kpoint 5">
       <r>  -22.0227    1.0000 </r>
       <r>  -18.2972    1.0000 </r>
       <r>  -14.5013    1.0000 </r>
       <r>  -10.1135    1.0000 </r>
       <r>   -8.8534    1.0000 </r>
       <r>   -6.5381    1.0000 </r>
       <r>   -6.0833    1.0000 </r>
       <r>   -6.0113    1.0000 </r>
       <r>   -0.0650    0.0000 </r>
       <r>    0.7501    0.0000 </r>
       <r>    1.5528    0.0000 </r>
       <r>    1.9427    0.0000 </r>
      </set>
      <set comment="kpoint 6">
       <r>  -21.9325    1.0000 </r>
       <r>  -18.6566    1.0000 </r>
       <r>  -14.0081    1.0000 </r>
       <r>  -10.0063    1.0000 </r>
       <r>   -8.7660    1.0000 </r>
       <r>   -6.8798    1.0000 </r>
       <r>   -6.3479    1.0000 </r>
       <r>   -6.2467    1.0000 </r>
       <r>    0.4096    0.0000 </r>
       <r>    0.8727    0.0000 </r>
       <r>    1.6769    0.0000 </r>
       <r>    2.0685    0.0000 </r>
      </set>
      <set comment="kpoint 7">
       <r>  -21.8223    1.0000 </r>
       <r>  -19.0044    1.0000 </r>
       <r>  -13.4983    1.0000 </r>
       <r>   -9.8758    1.0000 </r>
       <r>   -8.6602    1.0000 </r>
       <r>   -7.2738    1.0000 </r>
       <r>   -6.6958    1.0000 </r>
       <r>   -6.4317    1.0000 </r>
       <r>    0.9230    0.0000 </r>
       <r>    1.0225    0.0000 </r>
       <r>    1.8283    0.0000 </r>
       <r>    2.2221    0.0000 </r>
      </set>
      <set comment="kpoint 8">
       <r>  -21.6923    1.0000 </r>
       <r>  -19.3378    1.0000 </r>
       <r>  -12.9758    1.0000 </r>
       <r>   -9.7220    1.0000 </r>
       <r>   -8.5367    1.0000 </r>
       <r>   -7.7107    1.0000 </r>
       <r>   -7.0445    1.0000 </r>
       <r>   -6.6320    1.0000 </r>
       <r>    1.1995    0.0000 </r>
       <r>    1.4624    0.0000 </r>
       <r>    2.0072    0.0000 </r>
       <r>    2.4037    0.0000 </r>
      </set>
      <set comment="kpoint 9">
       <r>  -21.5426    1.0000 </r>
       <r>  -19.6552    1.0000 </r>
       <r>  -12.4435    1.0000 </r>
       <r>   -9.5454    1.0000 </r>
       <r>   -8.3962    1.0000 </r>
       <r>   -8.1817    1.0000 </r>
       <r>   -7.3871    1.0000 </r>
       <r>   -6.8421    1.0000 </r>
       <r>    1.4037    0.0000 </r>
       <r>    2.0182    0.0000 </r>
       <r>    2.2133    0.0000 </r>
       <r>    2.6132    0.0000 </r>
      </set>
      <set comment="kpoint 10">
       <r>  -21.3733    1.0000 </r>
       <r>  -19.9557    1.0000 </r>
       <r>  -11.9038    1.0000 </r>
       <r>   -9.3463    1.0000 </r>
       <r>   -8.6792    1.0000 </r>
       <r>   -8.2398    1.0000 </r>
       <r>   -7.7187    1.0000 </r>
       <r>   -7.0568    1.0000 </r>
       <r>    1.6351    0.0000 </r>
       <r>    2.4463    0.0000 </r>
       <r>    2.5809    0.0000 </r>
       <r>    2.8506    0.0000 </r>
      </set>
      <set comment="kpoint 11">
       <r>  -21.1845    1.0000 </r>
       <r>  -20.2385    1.0000 </r>
       <r>  -11.3594    1.0000 </r>
       <r>   -9.1965    1.0000 </r>
       <r>   -9.1252    1.0000 </r>
       <r>   -8.0686    1.0000 </r>
       <r>   -8.0362    1.0000 </r>
       <r>   -7.2719    1.0000 </r>
       <r>    1.8935    0.0000 </r>
       <r>    2.7057    0.0000 </r>
       <r>    3.1160    0.0000 </r>
       <r>    3.1350    0.0000 </r>
      </set>
      <set comment="kpoint 12">
       <r>  -20.9764    1.0000 </r>
       <r>  -20.5031    1.0000 </r>
       <r>  -10.8130    1.0000 </r>
       <r>   -9.7277    1.0000 </r>
       <r>   -8.8828    1.0000 </r>
       <r>   -8.3371    1.0000 </r>
       <r>   -7.8842    1.0000 </r>
       <r>   -7.4835    1.0000 </r>
       <r>    2.1790    0.0000 </r>
       <r>    2.8302    0.0000 </r>
       <r>    2.9901    0.0000 </r>
       <r>    3.4092    0.0000 </r>
      </set>
[...]
       <r>   -9.2714    1.0000 </r>
       <r>   -5.5620    1.0000 </r>
       <r>   -5.5620    1.0000 </r>
       <r>   -0.4492    0.0000 </r>
       <r>   -0.4492    0.0000 </r>
       <r>    4.5490    0.0000 </r>
       <r>    4.5490    0.0000 </r>
      </set>
      <set comment="kpoint 209">
       <r>  -18.7504    1.0000 </r>
       <r>  -16.9486    1.0000 </r>
       <r>  -14.1196    1.0000 </r>
       <r>  -12.4752    1.0000 </r>
       <r>  -12.3720    1.0000 </r>
       <r>  -10.8473    1.0000 </r>
       <r>   -6.3603    1.0000 </r>
       <r>   -4.4748    1.0000 </r>
       <r>   -1.0750    0.0000 </r>
       <r>    1.0899    0.0000 </r>
       <r>    5.2769    0.0000 </r>
       <r>    6.0577    0.0000 </r>
      </set>
      <set comment="kpoint 210">
       <r>  -18.7409    1.0000 </r>
       <r>  -16.9411    1.0000 </r>
       <r>  -14.1973    1.0000 </r>
       <r>  -12.5473    1.0000 </r>
       <r>  -12.2867    1.0000 </r>
       <r>  -10.7776    1.0000 </r>
       <r>   -6.3517    1.0000 </r>
       <r>   -4.4781    1.0000 </r>
       <r>   -1.0833    0.0000 </r>
       <r>    1.0656    0.0000 </r>
       <r>    5.2902    0.0000 </r>
       <r>    6.0733    0.0000 </r>
      </set>
      <set comment="kpoint 211">
       <r>  -18.7124    1.0000 </r>
       <r>  -16.9189    1.0000 </r>
       <r>  -14.3944    1.0000 </r>
       <r>  -12.7335    1.0000 </r>
       <r>  -12.0665    1.0000 </r>
       <r>  -10.5992    1.0000 </r>
       <r>   -6.3260    1.0000 </r>
       <r>   -4.4888    1.0000 </r>
       <r>   -1.1064    0.0000 </r>
       <r>    0.9943    0.0000 </r>
       <r>    5.3300    0.0000 </r>
       <r>    6.1200    0.0000 </r>
      </set>
      <set comment="kpoint 212">
       <r>  -18.6650    1.0000 </r>
       <r>  -16.8832    1.0000 </r>
       <r>  -14.6516    1.0000 </r>
       <r>  -12.9830    1.0000 </r>
       <r>  -11.7709    1.0000 </r>
       <r>  -10.3650    1.0000 </r>
       <r>   -6.2834    1.0000 </r>
       <r>   -4.5080    1.0000 </r>
       <r>   -1.1395    0.0000 </r>
       <r>    0.8810    0.0000 </r>
       <r>    5.3958    0.0000 </r>
       <r>    6.1966    0.0000 </r>
      </set>
      <set comment="kpoint 213">
       <r>  -18.5988    1.0000 </r>
       <r>  -16.8369    1.0000 </r>
       <r>  -14.9288    1.0000 </r>
       <r>  -13.2614    1.0000 </r>
       <r>  -11.4395    1.0000 </r>
       <r>  -10.1125    1.0000 </r>
       <r>   -6.2245    1.0000 </r>
       <r>   -4.5381    1.0000 </r>
       <r>   -1.1758    0.0000 </r>
       <r>    0.7327    0.0000 </r>
       <r>    5.4858    0.0000 </r>
       <r>    6.3033    0.0000 </r>
      </set>
      <set comment="kpoint 214">
       <r>  -18.5140    1.0000 </r>
       <r>  -16.7854    1.0000 </r>
       <r>  -15.2014    1.0000 </r>
       <r>  -13.5505    1.0000 </r>
       <r>  -11.0947    1.0000 </r>
       <r>   -9.8646    1.0000 </r>
       <r>   -6.1500    1.0000 </r>
       <r>   -4.5814    1.0000 </r>
       <r>   -1.2068    0.0000 </r>
       <r>    0.5576    0.0000 </r>
       <r>    5.5814    0.0000 </r>
       <r>    5.8646    0.0000 </r>
      </set>
      <set comment="kpoint 215">
       <r>  -18.4109    1.0000 </r>
       <r>  -16.7397    1.0000 </r>
       <r>  -15.4483    1.0000 </r>
       <r>  -13.8401    1.0000 </r>
       <r>  -10.7506    1.0000 </r>
       <r>   -9.6368    1.0000 </r>
       <r>   -6.0607    1.0000 </r>
       <r>   -4.6403    1.0000 </r>
       <r>   -1.2245    0.0000 </r>
       <r>    0.3641    0.0000 </r>
       <r>    5.3670    0.0000 </r>
       <r>    5.7888    0.0000 </r>
      </set>
      <set comment="kpoint 216">
       <r>  -18.2900    1.0000 </r>
       <r>  -16.7218    1.0000 </r>
       <r>  -15.6424    1.0000 </r>
       <r>  -14.1242    1.0000 </r>
       <r>  -10.4179    1.0000 </r>
       <r>   -9.4415    1.0000 </r>
       <r>   -5.9579    1.0000 </r>
       <r>   -4.7161    1.0000 </r>
       <r>   -1.2215    0.0000 </r>
       <r>    0.1600    0.0000 </r>
       <r>    5.0072    0.0000 </r>
       <r>    5.9794    0.0000 </r>
      </set>
      <set comment="kpoint 217">
       <r>  -18.1517    1.0000 </r>
       <r>  -16.7637    1.0000 </r>
       <r>  -15.7483    1.0000 </r>
       <r>  -14.3986    1.0000 </r>
       <r>  -10.1060    1.0000 </r>
       <r>   -9.2891    1.0000 </r>
       <r>   -5.8432    1.0000 </r>
       <r>   -4.8090    1.0000 </r>
       <r>   -1.1927    0.0000 </r>
       <r>   -0.0475    0.0000 </r>
       <r>    4.7134    0.0000 </r>
       <r>    5.5330    0.0000 </r>
      </set>
      <set comment="kpoint 218">
       <r>  -17.9969    1.0000 </r>
       <r>  -16.8812    1.0000 </r>
       <r>  -15.7482    1.0000 </r>
       <r>  -14.6603    1.0000 </r>
       <r>   -9.8243    1.0000 </r>
       <r>   -9.1881    1.0000 </r>
       <r>   -5.7184    1.0000 </r>
       <r>   -4.9178    1.0000 </r>
       <r>   -1.1353    0.0000 </r>
       <r>   -0.2518    0.0000 </r>
       <r>    4.5017    0.0000 </r>
       <r>    5.1418    0.0000 </r>
      </set>
      <set comment="kpoint 219">
       <r>  -17.8266    1.0000 </r>
       <r>  -17.0529    1.0000 </r>
       <r>  -15.6623    1.0000 </r>
       <r>  -14.9067    1.0000 </r>
       <r>   -9.5814    1.0000 </r>
       <r>   -9.1451    1.0000 </r>
       <r>   -5.5858    1.0000 </r>
       <r>   -5.0398    1.0000 </r>
       <r>   -1.0484    0.0000 </r>
       <r>   -0.4474    0.0000 </r>
       <r>    4.3798    0.0000 </r>
       <r>    4.8197    0.0000 </r>
      </set>
      <set comment="kpoint 220">
       <r>  -17.6428    1.0000 </r>
       <r>  -17.2483    1.0000 </r>
       <r>  -15.5204    1.0000 </r>
       <r>  -15.1348    1.0000 </r>
       <r>   -9.3859    1.0000 </r>
       <r>   -9.1639    1.0000 </r>
       <r>   -5.4482    1.0000 </r>
       <r>   -5.1715    1.0000 </r>
       <r>   -0.9333    0.0000 </r>
       <r>   -0.6292    0.0000 </r>
       <r>    4.3516    0.0000 </r>
       <r>    4.5758    0.0000 </r>
      </set>
      <set comment="kpoint 221">
       <r>  -17.4483    1.0000 </r>
       <r>  -17.4483    1.0000 </r>
       <r>  -15.3412    1.0000 </r>
       <r>  -15.3412    1.0000 </r>
       <r>   -9.2450    1.0000 </r>
       <r>   -9.2450    1.0000 </r>
       <r>   -5.3089    1.0000 </r>
       <r>   -5.3089    1.0000 </r>
       <r>   -0.7925    0.0000 </r>
       <r>   -0.7925    0.0000 </r>
       <r>    4.4179    0.0000 </r>
       <r>    4.4179    0.0000 </r>
      </set>
      <set comment="kpoint 222">
       <r>  -18.3252    1.0000 </r>
       <r>  -17.4205    1.0000 </r>
       <r>  -13.7390    1.0000 </r>
       <r>  -12.9160    1.0000 </r>
       <r>  -12.0229    1.0000 </r>
       <r>  -11.2557    1.0000 </r>
       <r>   -5.9004    1.0000 </r>
       <r>   -4.9521    1.0000 </r>
       <r>   -0.5667    0.0000 </r>
       <r>    0.5179    0.0000 </r>
       <r>    5.8798    0.0000 </r>
       <r>    6.6203    0.0000 </r>
      </set>
      <set comment="kpoint 223">
       <r>  -18.3158    1.0000 </r>
       <r>  -17.4119    1.0000 </r>
       <r>  -13.8168    1.0000 </r>
       <r>  -12.9905    1.0000 </r>
       <r>  -11.9401    1.0000 </r>
       <r>  -11.1810    1.0000 </r>
       <r>   -5.8931    1.0000 </r>
       <r>   -4.9500    1.0000 </r>
       <r>   -0.5818    0.0000 </r>
       <r>    0.4956    0.0000 </r>
       <r>    5.8930    0.0000 </r>
       <r>    6.6368    0.0000 </r>
      </set>
      <set comment="kpoint 224">
       <r>  -18.2878    1.0000 </r>
       <r>  -17.3863    1.0000 </r>
       <r>  -14.0150    1.0000 </r>
       <r>  -13.1820    1.0000 </r>
       <r>  -11.7273    1.0000 </r>
       <r>  -10.9895    1.0000 </r>
       <r>   -5.8714    1.0000 </r>
       <r>   -4.9441    1.0000 </r>
       <r>   -0.6253    0.0000 </r>
       <r>    0.4305    0.0000 </r>
       <r>    5.9326    0.0000 </r>
       <r>    6.6860    0.0000 </r>
      </set>
      <set comment="kpoint 225">
       <r>  -18.2413    1.0000 </r>
       <r>  -17.3441    1.0000 </r>
       <r>  -14.2759    1.0000 </r>
       <r>  -13.4370    1.0000 </r>
       <r>  -11.4432    1.0000 </r>
       <r>  -10.7365    1.0000 </r>
       <r>   -5.8357    1.0000 </r>
       <r>   -4.9354    1.0000 </r>
       <r>   -0.6925    0.0000 </r>
       <r>    0.3273    0.0000 </r>
       <r>    5.9977    0.0000 </r>
       <r>    6.7665    0.0000 </r>
      </set>
      <set comment="kpoint 226">
       <r>  -18.1764    1.0000 </r>
       <r>  -17.2862    1.0000 </r>
       <r>  -14.5617    1.0000 </r>
       <r>  -13.7200    1.0000 </r>
       <r>  -11.1273    1.0000 </r>
       <r>  -10.4602    1.0000 </r>
       <r>   -5.7867    1.0000 </r>
       <r>   -4.9258    1.0000 </r>
       <r>   -0.7760    0.0000 </r>
       <r>    0.1931    0.0000 </r>
       <r>    6.0836    0.0000 </r>
       <r>    6.6198    0.0000 </r>
      </set>
      <set comment="kpoint 227">
       <r>  -18.0935    1.0000 </r>
       <r>  -17.2142    1.0000 </r>
       <r>  -14.8518    1.0000 </r>
       <r>  -14.0124    1.0000 </r>
       <r>  -10.8020    1.0000 </r>
       <r>  -10.1835    1.0000 </r>
       <r>   -5.7255    1.0000 </r>
       <r>   -4.9177    1.0000 </r>
       <r>   -0.8670    0.0000 </r>
       <r>    0.0362    0.0000 </r>
       <r>    6.0397    0.0000 </r>
       <r>    6.2643    0.0000 </r>
      </set>
      <set comment="kpoint 228">
       <r>  -17.9931    1.0000 </r>
       <r>  -17.1309    1.0000 </r>
       <r>  -15.1337    1.0000 </r>
       <r>  -14.3039    1.0000 </r>
       <r>  -10.4819    1.0000 </r>
       <r>   -9.9216    1.0000 </r>
       <r>   -5.6536    1.0000 </r>
       <r>   -4.9141    1.0000 </r>
       <r>   -0.9562    0.0000 </r>
       <r>   -0.1348    0.0000 </r>
       <r>    5.6019    0.0000 </r>
       <r>    6.1588    0.0000 </r>
      </set>
      <set comment="kpoint 229">
       <r>  -17.8759    1.0000 </r>
       <r>  -17.0420    1.0000 </r>
       <r>  -15.3964    1.0000 </r>
       <r>  -14.5880    1.0000 </r>
       <r>  -10.1780    1.0000 </r>
       <r>   -9.6865    1.0000 </r>
       <r>   -5.5729    1.0000 </r>
       <r>   -4.9183    1.0000 </r>
       <r>   -1.0340    0.0000 </r>
       <r>   -0.3114    0.0000 </r>
       <r>    5.1944    0.0000 </r>
       <r>    5.6846    0.0000 </r>
      </set>
      <set comment="kpoint 230">
       <r>  -17.7429    1.0000 </r>
       <r>  -16.9581    1.0000 </r>
       <r>  -15.6257    1.0000 </r>
       <r>  -14.8605    1.0000 </r>
       <r>   -9.9004    1.0000 </r>
       <r>   -9.4888    1.0000 </r>
       <r>   -5.4857    1.0000 </r>
       <r>   -4.9333    1.0000 </r>
       <r>   -1.0922    0.0000 </r>
       <r>   -0.4857    0.0000 </r>
       <r>    4.8536    0.0000 </r>
       <r>    5.2658    0.0000 </r>
      </set>
      <set comment="kpoint 231">
       <r>  -17.5960    1.0000 </r>
       <r>  -16.9008    1.0000 </r>
       <r>  -15.7983    1.0000 </r>
       <r>  -15.1172    1.0000 </r>
       <r>   -9.6583    1.0000 </r>
       <r>   -9.3376    1.0000 </r>
       <r>   -5.3947    1.0000 </r>
       <r>   -4.9617    1.0000 </r>
       <r>   -1.1237    0.0000 </r>
       <r>   -0.6503    0.0000 </r>
       <r>    4.5906    0.0000 </r>
       <r>    4.9129    0.0000 </r>
      </set>
      <set comment="kpoint 232">
       <r>  -17.4380    1.0000 </r>
       <r>  -16.9023    1.0000 </r>
       <r>  -15.8804    1.0000 </r>
       <r>  -15.3540    1.0000 </r>
       <r>   -9.4608    1.0000 </r>
       <r>   -9.2406    1.0000 </r>
       <r>   -5.3033    1.0000 </r>
       <r>   -5.0048    1.0000 </r>
       <r>   -1.1238    0.0000 </r>
       <r>   -0.7985    0.0000 </r>
       <r>    4.4138    0.0000 </r>
       <r>    4.6354    0.0000 </r>
      </set>
      <set comment="kpoint 233">
       <r>  -17.2742    1.0000 </r>
       <r>  -16.9806    1.0000 </r>
       <r>  -15.8535    1.0000 </r>
       <r>  -15.5644    1.0000 </r>
       <r>   -9.3154    1.0000 </r>
       <r>   -9.2033    1.0000 </r>
       <r>   -5.2151    1.0000 </r>
       <r>   -5.0627    1.0000 </r>
       <r>   -1.0902    0.0000 </r>
       <r>   -0.9245    0.0000 </r>
       <r>    4.3287    0.0000 </r>
       <r>    4.4417    0.0000 </r>
      </set>
      <set comment="kpoint 234">
       <r>  -17.1151    1.0000 </r>
       <r>  -17.1151    1.0000 </r>
       <r>  -15.7377    1.0000 </r>
       <r>  -15.7377    1.0000 </r>
       <r>   -9.2284    1.0000 </r>
       <r>   -9.2284    1.0000 </r>
       <r>   -5.1337    1.0000 </r>
       <r>   -5.1337    1.0000 </r>
       <r>   -1.0230    0.0000 </r>
       <r>   -1.0230    0.0000 </r>
       <r>    4.3382    0.0000 </r>
       <r>    4.3382    0.0000 </r>
      </set>
      <set comment="kpoint 235">
       <r>  -17.8809    1.0000 </r>
       <r>  -17.8809    1.0000 </r>
       <r>  -13.3376    1.0000 </r>
       <r>  -13.3376    1.0000 </r>
       <r>  -11.6490    1.0000 </r>
       <r>  -11.6490    1.0000 </r>
       <r>   -5.4293    1.0000 </r>
       <r>   -5.4293    1.0000 </r>
       <r>   -0.0351    0.0000 </r>
       <r>   -0.0351    0.0000 </r>
       <r>    6.5145    0.0000 </r>
       <r>    6.5145    0.0000 </r>
      </set>
      <set comment="kpoint 236">
       <r>  -17.8718    1.0000 </r>
       <r>  -17.8718    1.0000 </r>
       <r>  -13.4141    1.0000 </r>
       <r>  -13.4141    1.0000 </r>
       <r>  -11.5699    1.0000 </r>
       <r>  -11.5699    1.0000 </r>
       <r>   -5.4240    1.0000 </r>
       <r>   -5.4240    1.0000 </r>
       <r>   -0.0545    0.0000 </r>
       <r>   -0.0545    0.0000 </r>
       <r>    6.5276    0.0000 </r>
       <r>    6.5276    0.0000 </r>
      </set>
      <set comment="kpoint 237">
       <r>  -17.8446    1.0000 </r>
       <r>  -17.8446    1.0000 </r>
       <r>  -13.6099    1.0000 </r>
       <r>  -13.6099    1.0000 </r>
       <r>  -11.3668    1.0000 </r>
       <r>  -11.3668    1.0000 </r>
       <r>   -5.4084    1.0000 </r>
       <r>   -5.4084    1.0000 </r>
       <r>   -0.1109    0.0000 </r>
       <r>   -0.1109    0.0000 </r>
       <r>    6.5669    0.0000 </r>
       <r>    6.5669    0.0000 </r>
      </set>
      <set comment="kpoint 238">
       <r>  -17.7996    1.0000 </r>
       <r>  -17.7996    1.0000 </r>
       <r>  -13.8690    1.0000 </r>
       <r>  -13.8690    1.0000 </r>
       <r>  -11.0971    1.0000 </r>
       <r>  -11.0971    1.0000 </r>
       <r>   -5.3831    1.0000 </r>
       <r>   -5.3831    1.0000 </r>
       <r>   -0.1996    0.0000 </r>
       <r>   -0.1996    0.0000 </r>
       <r>    6.6306    0.0000 </r>
       <r>    6.6306    0.0000 </r>
      </set>
      <set comment="kpoint 239">
       <r>  -17.7370    1.0000 </r>
       <r>  -17.7370    1.0000 </r>
       <r>  -14.1551    1.0000 </r>
       <r>  -14.1551    1.0000 </r>
       <r>  -10.7996    1.0000 </r>
       <r>  -10.7996    1.0000 </r>
       <r>   -5.3493    1.0000 </r>
       <r>   -5.3493    1.0000 </r>
       <r>   -0.3136    0.0000 </r>
       <r>   -0.3136    0.0000 </r>
       <r>    6.6994    0.0000 </r>
       <r>    6.6994    0.0000 </r>
      </set>
      <set comment="kpoint 240">
       <r>  -17.6575    1.0000 </r>
       <r>  -17.6575    1.0000 </r>
       <r>  -14.4487    1.0000 </r>
       <r>  -14.4487    1.0000 </r>
       <r>  -10.4971    1.0000 </r>
       <r>  -10.4971    1.0000 </r>
       <r>   -5.3087    1.0000 </r>
       <r>   -5.3087    1.0000 </r>
       <r>   -0.4441    0.0000 </r>
       <r>   -0.4441    0.0000 </r>
       <r>    6.3561    0.0000 </r>
       <r>    6.3561    0.0000 </r>
      </set>
      <set comment="kpoint 241">
       <r>  -17.5622    1.0000 </r>
       <r>  -17.5622    1.0000 </r>
       <r>  -14.7391    1.0000 </r>
       <r>  -14.7391    1.0000 </r>
       <r>  -10.2044    1.0000 </r>
       <r>  -10.2044    1.0000 </r>
       <r>   -5.2636    1.0000 </r>
       <r>   -5.2636    1.0000 </r>
       <r>   -0.5822    0.0000 </r>
       <r>   -0.5822    0.0000 </r>
       <r>    5.8649    0.0000 </r>
       <r>    5.8649    0.0000 </r>
      </set>
      <set comment="kpoint 242">
       <r>  -17.4527    1.0000 </r>
       <r>  -17.4527    1.0000 </r>
       <r>  -15.0192    1.0000 </r>
       <r>  -15.0192    1.0000 </r>
       <r>   -9.9331    1.0000 </r>
       <r>   -9.9331    1.0000 </r>
       <r>   -5.2166    1.0000 </r>
       <r>   -5.2166    1.0000 </r>
       <r>   -0.7187    0.0000 </r>
       <r>   -0.7187    0.0000 </r>
       <r>    5.4208    0.0000 </r>
       <r>    5.4208    0.0000 </r>
      </set>
      <set comment="kpoint 243">
       <r>  -17.3320    1.0000 </r>
       <r>  -17.3320    1.0000 </r>
       <r>  -15.2826    1.0000 </r>
       <r>  -15.2826    1.0000 </r>
       <r>   -9.6935    1.0000 </r>
       <r>   -9.6935    1.0000 </r>
       <r>   -5.1711    1.0000 </r>
       <r>   -5.1711    1.0000 </r>
       <r>   -0.8449    0.0000 </r>
       <r>   -0.8449    0.0000 </r>
       <r>    5.0384    0.0000 </r>
       <r>    5.0384    0.0000 </r>
      </set>
      <set comment="kpoint 244">
       <r>  -17.2053    1.0000 </r>
       <r>  -17.2053    1.0000 </r>
       <r>  -15.5218    1.0000 </r>
       <r>  -15.5218    1.0000 </r>
       <r>   -9.4951    1.0000 </r>
       <r>   -9.4951    1.0000 </r>
       <r>   -5.1304    1.0000 </r>
       <r>   -5.1304    1.0000 </r>
       <r>   -0.9528    0.0000 </r>
       <r>   -0.9528    0.0000 </r>
       <r>    4.7283    0.0000 </r>
       <r>    4.7283    0.0000 </r>
      </set>
      <set comment="kpoint 245">
       <r>  -17.0834    1.0000 </r>
       <r>  -17.0834    1.0000 </r>
       <r>  -15.7250    1.0000 </r>
       <r>  -15.7250    1.0000 </r>
       <r>   -9.3464    1.0000 </r>
       <r>   -9.3464    1.0000 </r>
       <r>   -5.0982    1.0000 </r>
       <r>   -5.0982    1.0000 </r>
       <r>   -1.0354    0.0000 </r>
       <r>   -1.0354    0.0000 </r>
       <r>    4.4994    0.0000 </r>
       <r>    4.4994    0.0000 </r>
      </set>
      <set comment="kpoint 246">
       <r>  -16.9871    1.0000 </r>
       <r>  -16.9871    1.0000 </r>
       <r>  -15.8705    1.0000 </r>
       <r>  -15.8705    1.0000 </r>
       <r>   -9.2541    1.0000 </r>
       <r>   -9.2541    1.0000 </r>
       <r>   -5.0774    1.0000 </r>
       <r>   -5.0774    1.0000 </r>
       <r>   -1.0874    0.0000 </r>
       <r>   -1.0874    0.0000 </r>
       <r>    4.3589    0.0000 </r>
       <r>    4.3589    0.0000 </r>
      </set>
      <set comment="kpoint 247">
       <r>  -16.9485    1.0000 </r>
       <r>  -16.9485    1.0000 </r>
       <r>  -15.9255    1.0000 </r>
       <r>  -15.9255    1.0000 </r>
       <r>   -9.2228    1.0000 </r>
       <r>   -9.2228    1.0000 </r>
       <r>   -5.0702    1.0000 </r>
       <r>   -5.0702    1.0000 </r>
       <r>   -1.1051    0.0000 </r>
       <r>   -1.1051    0.0000 </r>
       <r>    4.3115    0.0000 </r>
       <r>    4.3115    0.0000 </r>
      </set>
     </set>
    </set>
   </array>
  </eigenvalues>
  <separator name="orbital magnetization" >
   <v name="MAGDIPOLOUT">      0.00000000      0.00000000      0.00000000</v>
  </separator>
 </calculation>
 <structure name="finalpos" >
  <crystal>
   <varray name="basis" >
    <v>       4.31684647       0.00000000       0.00000000 </v>
    <v>       0.00000000       2.46276166       0.00000000 </v>
    <v>       0.00000000       0.00000000      19.83168873 </v>
   </varray>
   <i name="volume">    210.83790140 </i>
   <varray name="rec_basis" >
    <v>       0.23165058       0.00000000       0.00000000 </v>
    <v>       0.00000000       0.40604822       0.00000000 </v>
    <v>       0.00000000       0.00000000       0.05042435 </v>
   </varray>
  </crystal>
  <varray name="positions" >
   <v>       0.99975162       0.00000000      -0.00000000 </v>
   <v>       0.16691505       0.50000000       0.00000000 </v>
   <v>       0.49975162       0.50000000      -0.00000000 </v>
   <v>       0.66691505       0.00000000       0.00000000 </v>
  </varray>
 </structure>
</modeling>
