gr                                      
           1
     4.316846    0.000000    0.000000
     0.000000    2.462762    0.000000
     0.000000    0.000000   19.831689
   C 
   4
Direct configuration=     1
   0.99975412  0.00000000  0.00000000
   0.16691255  0.50000000  0.00000000
   0.49975412  0.50000000  0.00000000
   0.66691255  0.00000000  0.00000000
Direct configuration=     2
   0.99974171  0.00000000 -0.00000000
   0.16692496  0.50000000  0.00000000
   0.49974171  0.50000000 -0.00000000
   0.66692496  0.00000000  0.00000000
Direct configuration=     3
   0.99975161  0.00000000 -0.00000000
   0.16691506  0.50000000  0.00000000
   0.49975161  0.50000000 -0.00000000
   0.66691506  0.00000000  0.00000000
Direct configuration=     4
   0.99975162 -0.00000000 -0.00000000
   0.16691505  0.50000000  0.00000000
   0.49975162  0.50000000 -0.00000000
   0.66691505  0.00000000  0.00000000
Direct configuration=     5
   0.99975162  0.00000000 -0.00000000
   0.16691505  0.50000000  0.00000000
   0.49975162  0.50000000 -0.00000000
   0.66691505  0.00000000  0.00000000
