    4    4  400    1
  0.5270948E+02  0.4379456E-09  0.2457239E-09  0.1959210E-08  0.5000000E-15
  1.000000000000000E-004
  CAR 
 gr                                      
     16    247     12
 
  0.0000000E+00  0.0000000E+00  0.0000000E+00  0.1157407E-02
    1      -22.081606
    2      -17.256180
    3      -15.833412
    4      -10.226111
    5       -8.806713
    6       -6.005365
    7       -5.727479
    8       -5.334084
    9       -1.185429
   10        0.544676
   11        1.342778
   12        1.736144
 
  0.4166667E-01  0.0000000E+00  0.0000000E+00  0.2314815E-02
    1      -22.071845
    2      -17.374569
    3      -15.700041
    4      -10.214529
    5       -8.797264
    6       -6.049644
    7       -5.747560
    8       -5.392840
    9       -1.110954
   10        0.557877
   11        1.356173
   12        1.749707
 
  0.8333333E-01  0.0000000E+00  0.0000000E+00  0.2314815E-02
    1      -22.042569
    2      -17.648350
    3      -15.381392
    4      -10.179802
    5       -8.768966
    6       -6.180372
    7       -5.806759
    8       -5.557243
    9       -0.899551
   10        0.597490
   11        1.396352
   12        1.790397
 
  0.1250000E+00  0.0000000E+00  0.0000000E+00  0.2314815E-02
    1      -21.993796
    2      -17.978981
    3      -14.976235
    4      -10.121987
    5       -8.721972
    6       -6.391628
    7       -5.902106
    8       -5.800027
    9       -0.578958
   10        0.663535
   11        1.463300
   12        1.858219
 
  0.1666667E+00  0.0000000E+00  0.0000000E+00  0.2314815E-02
    1      -21.925562
    2      -18.324018
    3      -14.527402
    4      -10.041182
    5       -8.656542
    6       -6.674753
    7       -6.092754
    8       -6.029137
    9       -0.178418
   10        0.756036
   11        1.556990
   12        1.953178
 
  0.2083333E+00  0.0000000E+00  0.0000000E+00  0.2314815E-02
    1      -21.837919
    2      -18.667114
    3      -14.051804
    4       -9.937532
    5       -8.573050
    6       -7.019651
    7       -6.413134
    8       -6.182470
    9        0.278618
   10        0.875009
   11        1.677381
   12        2.075275
 
  0.2500000E+00  0.0000000E+00  0.0000000E+00  0.2314815E-02
    1      -21.730931
    2      -19.001131
    3      -13.557325
    4       -9.811225
    5       -8.471996
    6       -7.415931
    7       -6.745665
    8       -6.356348
    9        0.775084
   10        1.020454
   11        1.824404
   12        2.224513
 
  0.2916667E+00  0.0000000E+00  0.0000000E+00  0.2314815E-02
    1      -21.604683
    2      -19.322486
    3      -13.048501
    4       -9.662511
    5       -8.354024
    6       -7.853722
    7       -7.079966
    8       -6.545092
    9        1.192358
   10        1.298533
   11        1.997953
   12        2.400890
 
  0.3333333E+00  0.0000000E+00  0.0000000E+00  0.2314815E-02
    1      -21.459278
    2      -19.629153
    3      -12.528553
    4       -9.491705
    5       -8.324113
    6       -8.219936
    7       -7.409079
    8       -6.743397
    9        1.390689
   10        1.839194
   11        2.197846
   12        2.604403
 
  0.3750000E+00  0.0000000E+00  0.0000000E+00  0.2314815E-02
    1      -21.294840
    2      -19.919873
    3      -12.000204
    4       -9.299204
    5       -8.819319
    6       -8.070723
    7       -7.728250
    8       -6.946498
    9        1.615399
   10        2.387899
   11        2.423742
   12        2.835043
 
  0.4166667E+00  0.0000000E+00  0.0000000E+00  0.2314815E-02
    1      -21.111520
    2      -20.193798
    3      -11.466088
    4       -9.332659
    5       -9.085505
    6       -8.034150
    7       -7.907597
    8       -7.150225
    9        1.866424
   10        2.674874
   11        2.930500
   12        3.092798
 
  0.4583333E+00  0.0000000E+00  0.0000000E+00  0.2314815E-02
    1      -20.909502
    2      -20.450327
    3      -10.928973
    4       -9.858464
    5       -8.851235
    6       -8.324384
    7       -7.732025
    8       -7.350998
    9        2.143677
   10        2.776361
   11        2.949002
   12        3.373861
 
  0.5000000E+00  0.0000000E+00  0.0000000E+00  0.1157407E-02
    1      -20.689011
    2      -20.689011
    3      -10.391929
    4      -10.391929
    5       -8.597188
    6       -8.597188
    7       -7.545782
    8       -7.545782
    9        2.447044
   10        2.447044
   11        3.235219
   12        3.235219
 
  0.0000000E+00  0.2777778E-01  0.0000000E+00  0.2314815E-02
    1      -22.067778
    2      -17.244177
    3      -15.821622
    4      -10.209699
    5       -8.870023
    6       -6.031480
    7       -5.786525
    8       -5.317397
    9       -1.187877
   10        0.563410
   11        1.361702
   12        1.755306
 
  0.4166667E-01  0.2777778E-01  0.0000000E+00  0.4629630E-02
    1      -22.058018
    2      -17.362448
    3      -15.688414
    4      -10.198121
    5       -8.860562
    6       -6.076490
    7       -5.805270
    8       -5.376267
    9       -1.113390
   10        0.576611
   11        1.375096
   12        1.768869
 
  0.8333333E-01  0.2777778E-01  0.0000000E+00  0.4629630E-02
    1      -22.028746
    2      -17.636007
    3      -15.370121
    4      -10.163405
    5       -8.832229
    6       -6.208084
    7       -5.861896
    8       -5.540939
    9       -0.902024
   10        0.616224
   11        1.415272
   12        1.809559
 
  0.1250000E+00  0.2777778E-01  0.0000000E+00  0.4629630E-02
    1      -21.979981
    2      -17.966425
    3      -14.965405
    4      -10.105609
    5       -8.785174
    6       -6.418717
    7       -5.955342
    8       -5.784012
    9       -0.581654
   10        0.682270
   11        1.482217
   12        1.877382
 
  0.1666667E+00  0.2777778E-01  0.0000000E+00  0.4629630E-02
    1      -21.911759
    2      -18.311277
    3      -14.517088
    4      -10.024832
    5       -8.719652
    6       -6.699556
    7       -6.081678
    8       -6.076966
    9       -0.181605
   10        0.774773
   11        1.575904
   12        1.972341
 
  0.2083333E+00  0.2777778E-01  0.0000000E+00  0.4629630E-02
    1      -21.824130
    2      -18.654212
    3      -14.042091
    4       -9.921216
    5       -8.636032
    6       -7.041060
    7       -6.397487
    8       -6.235282
    9        0.274647
   10        0.893749
   11        1.696289
   12        2.094439
 
  0.2500000E+00  0.2777778E-01  0.0000000E+00  0.4629630E-02
    1      -21.717161
    2      -18.988092
    3      -13.548313
    4       -9.794951
    5       -8.534807
    6       -7.433452
    7       -6.730083
    8       -6.410026
    9        0.770053
   10        1.039199
   11        1.843307
   12        2.243679
 
  0.2916667E+00  0.2777778E-01  0.0000000E+00  0.4629630E-02
    1      -21.590936
    2      -19.309327
    3      -13.040314
    4       -9.646287
    5       -8.416608
    6       -7.867307
    7       -7.064394
    8       -6.599927
    9        1.211109
   10        1.292201
   11        2.016852
   12        2.420059
 
  0.3333333E+00  0.2777778E-01  0.0000000E+00  0.4629630E-02
    1      -21.445558
    2      -19.615891
    3      -12.521336
    4       -9.475538
    5       -8.333980
    6       -8.282230
    7       -7.393478
    8       -6.799478
    9        1.409447
   10        1.831389
   11        2.216745
   12        2.623575
 
  0.3750000E+00  0.2777778E-01  0.0000000E+00  0.4629630E-02
    1      -21.281151
    2      -19.906521
    3      -11.994132
    4       -9.283100
    5       -8.825817
    6       -8.132648
    7       -7.712594
    8       -7.003788
    9        1.634166
   10        2.378625
   11        2.442647
   12        2.854219
 
  0.4166667E+00  0.2777778E-01  0.0000000E+00  0.4629630E-02
    1      -21.097869
    2      -20.180369
    3      -11.461367
    4       -9.336189
    5       -9.069471
    6       -8.018425
    7       -7.969060
    8       -7.208621
    9        1.885202
   10        2.693795
   11        2.920577
   12        3.111980
 
  0.4583333E+00  0.2777778E-01  0.0000000E+00  0.4629630E-02
    1      -20.895895
    2      -20.436829
    3      -10.925846
    4       -9.859421
    5       -8.835276
    6       -8.308582
    7       -7.792918
    8       -7.410366
    9        2.162468
   10        2.795195
   11        2.967934
   12        3.392424
 
  0.5000000E+00  0.2777778E-01  0.0000000E+00  0.2314815E-02
    1      -20.675455
    2      -20.675455
    3      -10.390681
    4      -10.390681
    5       -8.581307
    6       -8.581307
    7       -7.605981
    8       -7.605981
    9        2.465851
   10        2.465851
   11        3.253744
   12        3.253744
 
  0.0000000E+00  0.5555556E-01  0.0000000E+00  0.2314815E-02
    1      -22.026303
    2      -17.208172
    3      -15.786393
    4      -10.160498
    5       -9.054821
    6       -6.109434
    7       -5.958806
    8       -5.267358
    9       -1.196026
   10        0.619611
   11        1.418465
   12        1.812792
 
  0.4166667E-01  0.5555556E-01  0.0000000E+00  0.4629630E-02
    1      -22.016548
    2      -17.326092
    3      -15.653672
    4      -10.148931
    5       -9.045321
    6       -6.159475
    7       -5.970738
    8       -5.326579
    9       -1.121498
   10        0.632812
   11        1.431857
   12        1.826355
 
  0.8333333E-01  0.5555556E-01  0.0000000E+00  0.4629630E-02
    1      -21.987289
    2      -17.598994
    3      -15.336449
    4      -10.114250
    5       -9.016869
    6       -6.296509
    7       -6.016889
    8       -5.492079
    9       -0.910240
   10        0.672425
   11        1.472027
   12        1.867046
 
  0.1250000E+00  0.5555556E-01  0.0000000E+00  0.4629630E-02
    1      -21.938548
    2      -17.928776
    3      -14.933070
    4      -10.056513
    5       -8.969607
    6       -6.505954
    7       -6.104048
    8       -5.736041
    9       -0.590544
   10        0.738471
   11        1.538962
   12        1.934869
 
  0.1666667E+00  0.5555556E-01  0.0000000E+00  0.4629630E-02
    1      -21.870360
    2      -18.273071
    3      -14.486322
    4       -9.975818
    5       -8.903778
    6       -6.779641
    7       -6.228653
    8       -6.029685
    9       -0.192000
   10        0.830976
   11        1.632634
   12        2.029829
 
  0.2083333E+00  0.5555556E-01  0.0000000E+00  0.4629630E-02
    1      -21.782776
    2      -18.615526
    3      -14.013161
    4       -9.872307
    5       -8.819731
    6       -7.110331
    7       -6.383742
    8       -6.350634
    9        0.261855
   10        0.949957
   11        1.753004
   12        2.151930
 
  0.2500000E+00  0.5555556E-01  0.0000000E+00  0.4629630E-02
    1      -21.675862
    2      -18.948990
    3      -13.521537
    4       -9.746171
    5       -8.717933
    6       -7.490311
    7       -6.683427
    8       -6.561841
    9        0.754016
   10        1.095417
   11        1.900005
   12        2.301174
 
  0.2916667E+00  0.5555556E-01  0.0000000E+00  0.4629630E-02
    1      -21.549706
    2      -19.269866
    3      -13.016073
    4       -9.597658
    5       -8.598986
    6       -7.911603
    7       -7.017763
    8       -6.755951
    9        1.267341
   10        1.272181
   11        2.073538
   12        2.477560
 
  0.3333333E+00  0.5555556E-01  0.0000000E+00  0.4629630E-02
    1      -21.404409
    2      -19.576119
    3      -12.500088
    4       -9.427083
    5       -8.463645
    6       -8.366431
    7       -7.346754
    8       -6.959897
    9        1.465696
   10        1.806834
   11        2.273428
   12        2.681084
 
  0.3750000E+00  0.5555556E-01  0.0000000E+00  0.4629630E-02
    1      -21.240100
    2      -19.866480
    3      -11.976425
    4       -9.234839
    5       -8.847575
    6       -8.312842
    7       -7.665702
    8       -7.168395
    9        1.690435
   10        2.349453
   11        2.499347
   12        2.911738
 
  0.4166667E+00  0.5555556E-01  0.0000000E+00  0.4629630E-02
    1      -21.056930
    2      -20.140093
    3      -11.447854
    4       -9.348553
    5       -9.021423
    6       -8.147723
    7       -7.971319
    8       -7.377004
    9        1.941492
   10        2.750546
   11        2.888756
   12        3.169514
 
  0.4583333E+00  0.5555556E-01  0.0000000E+00  0.4629630E-02
    1      -20.855087
    2      -20.396351
    3      -10.917301
    4       -9.863675
    5       -8.787455
    6       -8.261242
    7       -7.969686
    8       -7.582034
    9        2.218785
   10        2.851605
   11        3.024724
   12        3.368693
 
  0.5000000E+00  0.5555556E-01  0.0000000E+00  0.2314815E-02
    1      -20.634800
    2      -20.634800
    3      -10.388011
    4      -10.388011
    5       -8.533725
    6       -8.533725
    7       -7.780433
    8       -7.780433
    9        2.522204
   10        2.522204
   11        3.309066
   12        3.309066
 
  0.0000000E+00  0.8333333E-01  0.0000000E+00  0.2314815E-02
    1      -21.957216
    2      -17.148177
    3      -15.728170
    4      -10.078613
    5       -9.347159
    6       -6.238044
    7       -6.231273
    8       -5.184032
    9       -1.212294
   10        0.713278
   11        1.513046
   12        1.908604
 
  0.4166667E-01  0.8333333E-01  0.0000000E+00  0.4629630E-02
    1      -21.947468
    2      -17.265531
    3      -15.596253
    4      -10.067066
    5       -9.337581
    6       -6.323925
    7       -6.204497
    8       -5.243874
    9       -1.137683
   10        0.726478
   11        1.526434
   12        1.922167
 
  0.8333333E-01  0.8333333E-01  0.0000000E+00  0.4629630E-02
    1      -21.918233
    2      -17.537357
    3      -15.280828
    4      -10.032446
    5       -9.308887
    6       -6.471802
    7       -6.231677
    8       -5.410827
    9       -0.926584
   10        0.766085
   11        1.566592
   12        1.962857
 
  0.1250000E+00  0.8333333E-01  0.0000000E+00  0.4629630E-02
    1      -21.869532
    2      -17.866089
    3      -14.879728
    4       -9.974810
    5       -9.261206
    6       -6.676672
    7       -6.311272
    8       -5.656336
    9       -0.608037
   10        0.832125
   11        1.633507
   12        2.030679
 
  0.1666667E+00  0.8333333E-01  0.0000000E+00  0.4629630E-02
    1      -21.801401
    2      -18.209457
    3      -14.435682
    4       -9.894256
    5       -9.194755
    6       -6.935830
    7       -6.435865
    8       -5.951171
    9       -0.212086
   10        0.924624
   11        1.727154
   12        2.125640
 
  0.2083333E+00  0.8333333E-01  0.0000000E+00  0.4629630E-02
    1      -21.713891
    2      -18.551108
    3      -13.965706
    4       -9.790925
    5       -9.109847
    6       -7.245797
    7       -6.596278
    8       -6.272849
    9        0.237626
   10        1.043604
   11        1.847492
   12        2.247743
 
  0.2500000E+00  0.8333333E-01  0.0000000E+00  0.4629630E-02
    1      -21.607072
    2      -18.883877
    3      -13.477844
    4       -9.665010
    5       -9.006898
    6       -7.602156
    7       -6.782935
    8       -6.605971
    9        0.724178
   10        1.189067
   11        1.994463
   12        2.396991
 
  0.2916667E+00  0.8333333E-01  0.0000000E+00  0.4629630E-02
    1      -21.481030
    2      -19.204153
    3      -12.976838
    4       -9.516757
    5       -8.886449
    6       -7.999526
    7       -6.986999
    8       -6.940338
    9        1.235438
   10        1.360999
   11        2.167969
   12        2.573383
 
  0.3333333E+00  0.8333333E-01  0.0000000E+00  0.4629630E-02
    1      -21.335869
    2      -19.509884
    3      -12.466151
    4       -9.346480
    5       -8.749175
    6       -8.431829
    7       -7.269159
    8       -7.200962
    9        1.559366
   10        1.762174
   11        2.367850
   12        2.776917
 
  0.3750000E+00  0.8333333E-01  0.0000000E+00  0.4629630E-02
    1      -21.171720
    2      -19.799792
    3      -11.948800
    4       -9.154570
    5       -8.892734
    6       -8.595914
    7       -7.587808
    8       -7.418749
    9        1.784120
   10        2.296483
   11        2.593798
   12        3.007584
 
  0.4166667E+00  0.8333333E-01  0.0000000E+00  0.4629630E-02
    1      -20.988739
    2      -20.073014
    3      -11.427761
    4       -9.376065
    5       -8.941520
    6       -8.427699
    7       -7.893053
    8       -7.635546
    9        2.035192
   10        2.829457
   11        2.845093
   12        3.265377
 
  0.4583333E+00  0.8333333E-01  0.0000000E+00  0.4629630E-02
    1      -20.787116
    2      -20.328931
    3      -10.906204
    4       -9.876089
    5       -8.707946
    6       -8.245799
    7       -8.182566
    8       -7.847557
    9        2.312501
   10        2.945376
   11        3.119353
   12        3.333146
 
  0.5000000E+00  0.8333333E-01  0.0000000E+00  0.2314815E-02
    1      -20.567085
    2      -20.567085
    3      -10.387651
    4      -10.387651
    5       -8.454629
    6       -8.454629
    7       -8.051775
    8       -8.051775
    9        2.615941
   10        2.615941
   11        3.399914
   12        3.399914
 
  0.0000000E+00  0.1111111E+00  0.0000000E+00  0.2314815E-02
    1      -21.860577
    2      -17.064213
    3      -15.647789
    4       -9.964225
    5       -9.727709
    6       -6.586214
    7       -6.415299
    8       -5.067528
    9       -1.240712
   10        0.844407
   11        1.645404
   12        2.042742
 
  0.4166667E-01  0.1111111E+00  0.0000000E+00  0.4629630E-02
    1      -21.850840
    2      -17.180813
    3      -15.516987
    4       -9.952708
    5       -9.717990
    6       -6.639188
    7       -6.417638
    8       -5.128319
    9       -1.165941
   10        0.857602
   11        1.658785
   12        2.056304
 
  0.8333333E-01  0.1111111E+00  0.0000000E+00  0.4629630E-02
    1      -21.821639
    2      -17.451181
    3      -15.204112
    4       -9.918176
    5       -9.688863
    6       -6.772895
    7       -6.448176
    8       -5.297477
    9       -0.955007
   10        0.897197
   11        1.698924
   12        2.096992
 
  0.1250000E+00  0.1111111E+00  0.0000000E+00  0.4629630E-02
    1      -21.772993
    2      -17.778460
    3      -14.806328
    4       -9.860687
    5       -9.640430
    6       -6.963060
    7       -6.526168
    8       -5.545303
    9       -0.638099
   10        0.963216
   11        1.765807
   12        2.164811
 
  0.1666667E+00  0.1111111E+00  0.0000000E+00  0.4629630E-02
    1      -21.704942
    2      -18.120533
    3      -14.366282
    4       -9.780339
    5       -9.572863
    6       -7.200239
    7       -6.652974
    8       -5.841894
    9       -0.245941
   10        1.055692
   11        1.859410
   12        2.259769
 
  0.2083333E+00  0.1111111E+00  0.0000000E+00  0.4629630E-02
    1      -21.617537
    2      -18.461054
    3      -13.901080
    4       -9.677274
    5       -9.486406
    6       -7.480134
    7       -6.822272
    8       -6.164625
    9        0.197686
   10        1.174649
   11        1.979697
   12        2.381870
 
  0.2500000E+00  0.1111111E+00  0.0000000E+00  0.4629630E-02
    1      -21.510850
    2      -18.792844
    3      -13.418923
    4       -9.551682
    5       -9.381387
    6       -7.800421
    7       -7.024046
    8       -6.498203
    9        0.675995
   10        1.320094
   11        2.126611
   12        2.531119
 
  0.2916667E+00  0.1111111E+00  0.0000000E+00  0.4629630E-02
    1      -21.384967
    2      -19.112270
    3      -12.924753
    4       -9.403811
    5       -9.258220
    6       -8.159181
    7       -7.247107
    8       -6.832589
    9        1.177097
   10        1.492014
   11        2.300067
   12        2.707516
 
  0.3333333E+00  0.1111111E+00  0.0000000E+00  0.4629630E-02
    1      -21.239999
    2      -19.417265
    3      -12.422288
    4       -9.233971
    5       -9.117426
    6       -8.553735
    7       -7.481149
    8       -7.161134
    9        1.690374
   10        1.692101
   11        2.499923
   12        2.911057
 
  0.3750000E+00  0.1111111E+00  0.0000000E+00  0.4629630E-02
    1      -21.076076
    2      -19.706534
    3      -11.914860
    4       -9.042552
    5       -8.980120
    6       -8.959641
    7       -7.717923
    8       -7.479325
    9        1.915119
   10        2.213736
   11        2.725907
   12        3.141735
 
  0.4166667E+00  0.1111111E+00  0.0000000E+00  0.4629630E-02
    1      -20.893361
    2      -19.979203
    3      -11.405832
    4       -9.433300
    5       -8.830042
    6       -8.785651
    7       -7.951428
    8       -7.784007
    9        2.166181
   10        2.735006
   11        2.977360
   12        3.399542
 
  0.4583333E+00  0.1111111E+00  0.0000000E+00  0.4629630E-02
    1      -20.692048
    2      -20.234640
    3      -10.898842
    4       -9.907739
    5       -8.597050
    6       -8.596427
    7       -8.177486
    8       -8.072906
    9        2.443472
   10        3.076291
   11        3.243975
   12        3.251789
 
  0.5000000E+00  0.1111111E+00  0.0000000E+00  0.2314815E-02
    1      -20.472377
    2      -20.472377
    3      -10.397953
    4      -10.397953
    5       -8.393183
    6       -8.393183
    7       -8.344345
    8       -8.344345
    9        2.746887
   10        2.746887
   11        3.518915
   12        3.518915
 
  0.0000000E+00  0.1388889E+00  0.0000000E+00  0.2314815E-02
    1      -21.736472
    2      -16.956310
    3      -15.546661
    4      -10.175288
    5       -9.817595
    6       -7.004918
    7       -6.638355
    8       -4.918004
    9       -1.286863
   10        1.012987
   11        1.815480
   12        2.215207
 
  0.4166667E-01  0.1388889E+00  0.0000000E+00  0.4629630E-02
    1      -21.726750
    2      -17.072016
    3      -15.417273
    4      -10.165325
    5       -9.806118
    6       -7.050926
    7       -6.643143
    8       -4.980175
    9       -1.211785
   10        1.026173
   11        1.828851
   12        2.228768
 
  0.8333333E-01  0.1388889E+00  0.0000000E+00  0.4629630E-02
    1      -21.697591
    2      -17.340593
    3      -15.107768
    4      -10.135454
    5       -9.771707
    6       -7.174742
    7       -6.670609
    8       -5.152498
    9       -1.000906
   10        1.065743
   11        1.868957
   12        2.269451
 
  0.1250000E+00  0.1388889E+00  0.0000000E+00  0.4629630E-02
    1      -21.649018
    2      -17.666039
    3      -14.714528
    4      -10.085725
    5       -9.714418
    6       -7.354204
    7       -6.739529
    8       -5.403586
    9       -0.686105
   10        1.131724
   11        1.935788
   12        2.337263
 
  0.1666667E+00  0.1388889E+00  0.0000000E+00  0.4629630E-02
    1      -21.581070
    2      -18.006448
    3      -14.280099
    4      -10.016225
    5       -9.634351
    6       -7.575104
    7       -6.858289
    8       -5.702594
    9       -0.299050
   10        1.224150
   11        2.029320
   12        2.432212
 
  0.2083333E+00  0.1388889E+00  0.0000000E+00  0.4629630E-02
    1      -21.493802
    2      -18.345507
    3      -13.821736
    4       -9.927069
    5       -9.531648
    6       -7.829714
    7       -7.026380
    8       -6.026733
    9        0.136333
   10        1.343053
   11        2.149518
   12        2.554305
 
  0.2500000E+00  0.1388889E+00  0.0000000E+00  0.4629630E-02
    1      -21.387284
    2      -18.676023
    3      -13.347899
    4       -9.818400
    5       -9.406498
    6       -8.114347
    7       -7.237216
    8       -6.360881
    9        0.603472
   10        1.488445
   11        2.296333
   12        2.703548
 
  0.2916667E+00  0.1388889E+00  0.0000000E+00  0.4629630E-02
    1      -21.261608
    2      -18.994343
    3      -12.863887
    4       -9.690384
    5       -9.259149
    6       -8.428104
    7       -7.480083
    8       -6.695237
    9        1.090820
   10        1.660317
   11        2.469691
   12        2.879943
 
  0.3333333E+00  0.1388889E+00  0.0000000E+00  0.4629630E-02
    1      -21.116887
    2      -19.298379
    3      -12.373885
    4       -9.543202
    5       -9.089909
    6       -8.771730
    7       -7.742128
    8       -7.023356
    9        1.589893
   10        1.858632
   11        2.669477
   12        3.083486
 
  0.3750000E+00  0.1388889E+00  0.0000000E+00  0.4629630E-02
    1      -20.953258
    2      -19.586817
    3      -11.881826
    4       -9.377048
    5       -9.146081
    6       -8.899165
    7       -8.010656
    8       -7.340878
    9        2.083334
   10        2.093998
   11        2.895480
   12        3.314171
 
  0.4166667E+00  0.1388889E+00  0.0000000E+00  0.4629630E-02
    1      -20.770887
    2      -19.858765
    3      -11.391834
    4       -9.550554
    5       -9.192139
    6       -8.687399
    7       -8.275252
    8       -7.644755
    9        2.334344
   10        2.597361
   11        3.147177
   12        3.571988
 
  0.4583333E+00  0.1388889E+00  0.0000000E+00  0.4629630E-02
    1      -20.569977
    2      -20.113579
    3      -10.908464
    4       -9.982336
    5       -8.988748
    6       -8.528828
    7       -8.455211
    8       -7.932791
    9        2.611570
   10        3.093959
   11        3.244182
   12        3.421978
 
  0.5000000E+00  0.1388889E+00  0.0000000E+00  0.2314815E-02
    1      -20.350774
    2      -20.350774
    3      -10.436798
    4      -10.436798
    5       -8.767332
    6       -8.767332
    7       -8.203356
    8       -8.203356
    9        2.914895
   10        2.914895
   11        3.558642
   12        3.558642
 
  0.0000000E+00  0.1666667E+00  0.0000000E+00  0.2314815E-02
    1      -21.585017
    2      -16.824510
    3      -15.427133
    4      -10.669128
    5       -9.639072
    6       -7.470139
    7       -6.903562
    8       -4.735668
    9       -1.357672
   10        1.218994
   11        2.023189
   12        2.426000
 
  0.4166667E-01  0.1666667E+00  0.0000000E+00  0.4629630E-02
    1      -21.575313
    2      -16.939248
    3      -15.299466
    4      -10.658749
    5       -9.627647
    6       -7.514874
    7       -6.904607
    8       -4.799820
    9       -1.282001
   10        1.232168
   11        2.036543
   12        2.439558
 
  0.8333333E-01  0.1666667E+00  0.0000000E+00  0.4629630E-02
    1      -21.546207
    2      -17.205786
    3      -14.994300
    4      -10.627596
    5       -9.593394
    6       -7.636608
    7       -6.919665
    8       -4.976611
    9       -1.070818
   10        1.271702
   11        2.076598
   12        2.480234
 
  0.1250000E+00  0.1666667E+00  0.0000000E+00  0.4629630E-02
    1      -21.497723
    2      -17.529043
    3      -14.607216
    4      -10.575623
    5       -9.536369
    6       -7.813057
    7       -6.969206
    8       -5.232179
    9       -0.758464
   10        1.337622
   11        2.143341
   12        2.548033
 
  0.1666667E+00  0.1666667E+00  0.0000000E+00  0.4629630E-02
    1      -21.429901
    2      -17.867422
    3      -14.180674
    4      -10.502739
    5       -9.456672
    6       -8.027393
    7       -7.066515
    8       -5.534397
    9       -0.377868
   10        1.429965
   11        2.236751
   12        2.642965
 
  0.2083333E+00  0.1666667E+00  0.0000000E+00  0.4629630E-02
    1      -21.342798
    2      -18.204673
    3      -13.732194
    4      -10.408788
    5       -9.354446
    6       -8.269174
    7       -7.216355
    8       -5.860324
    9        0.046941
   10        1.548770
   11        2.356791
   12        2.765038
 
  0.2500000E+00  0.1666667E+00  0.0000000E+00  0.4629630E-02
    1      -21.236490
    2      -18.533607
    3      -13.270719
    4      -10.293517
    5       -9.229880
    6       -8.532270
    7       -7.416961
    8       -6.195122
    9        0.499771
   10        1.694060
   11        2.503417
   12        2.914264
 
  0.2916667E+00  0.1666667E+00  0.0000000E+00  0.4629630E-02
    1      -21.111069
    2      -18.850551
    3      -12.802240
    4      -10.156532
    5       -9.083221
    6       -8.813680
    7       -7.661592
    8       -6.529334
    9        0.969569
   10        1.865832
   11        2.676563
   12        3.090645
 
  0.3333333E+00  0.1666667E+00  0.0000000E+00  0.4629630E-02
    1      -20.966653
    2      -19.153393
    3      -12.331876
    4       -9.997243
    5       -9.113044
    6       -8.914777
    7       -7.939717
    8       -6.856799
    9        1.448380
   10        2.064054
   11        2.876144
   12        3.294182
 
  0.3750000E+00  0.1666667E+00  0.0000000E+00  0.4629630E-02
    1      -20.803387
    2      -19.440795
    3      -11.864781
    4       -9.814832
    5       -9.432288
    6       -8.724931
    7       -8.238185
    8       -7.173361
    9        1.930090
   10        2.288663
   11        3.102034
   12        3.524867
 
  0.4166667E+00  0.1666667E+00  0.0000000E+00  0.4629630E-02
    1      -20.621444
    2      -19.711846
    3      -11.406541
    4       -9.774824
    5       -9.608293
    6       -8.542721
    7       -8.514159
    8       -7.476116
    9        2.409702
   10        2.539572
   11        3.353990
   12        3.782690
 
  0.4583333E+00  0.1666667E+00  0.0000000E+00  0.4629630E-02
    1      -20.421033
    2      -19.965884
    3      -10.963202
    4      -10.143930
    5       -9.376695
    6       -8.840004
    7       -8.283050
    8       -7.762965
    9        2.816675
   10        2.882884
   11        3.448920
   12        3.629721
 
  0.5000000E+00  0.1666667E+00  0.0000000E+00  0.2314815E-02
    1      -20.202410
    2      -20.202410
    3      -10.540750
    4      -10.540750
    5       -9.119918
    6       -9.119918
    7       -8.032341
    8       -8.032341
    9        3.119842
   10        3.119842
   11        3.345497
   12        3.345497
 