<?xml version="1.0" encoding="ISO-8859-1"?>
<modeling>
 <generator>
  <i name="program" type="string">vasp </i>
  <i name="version" type="string">5.3.5  </i>
  <i name="subversion" type="string">31Mar14 (build Mar 02 2015 18:14:16) complex                          parallel </i>
  <i name="platform" type="string">LinuxIFC </i>
  <i name="date" type="string">2018 08 09 </i>
  <i name="time" type="string">14:06:25 </i>
 </generator>
 <incar>
  <i type="string" name="SYSTEM">  gr</i>
  <i type="string" name="PREC">accurate : accuracy</i>
  <i type="string" name="ALGO"> FAST.</i>
  <i type="int" name="NELM">   100</i>
  <i type="int" name="NELMDL">    -3</i>
  <i type="int" name="NELMIN">     5</i>
  <i type="int" name="IBRION">     1</i>
  <i name="EDIFF">      0.00000000</i>
  <i name="EDIFFG">     -0.00000100</i>
  <i type="int" name="NSW">   400</i>
  <i type="int" name="ISIF">     2</i>
  <i name="ENCUT">   2000.00000000</i>
  <i type="int" name="ISMEAR">     0</i>
  <i name="SIGMA">      0.05000000</i>
  <i type="int" name="NWRITE">     2</i>
  <i type="logical" name="LWAVE"> F  </i>
  <i type="logical" name="LCHARG"> F  </i>
  <i type="int" name="NELM">   100</i>
 </incar>
 <kpoints>
  <generation param="Gamma">
   <v type="int" name="divisions">      24       36        1 </v>
   <v name="usershift">      0.00000000       0.00000000       0.00000000 </v>
   <v name="genvec1">      0.04166667       0.00000000       0.00000000 </v>
   <v name="genvec2">      0.00000000       0.02777778       0.00000000 </v>
   <v name="genvec3">      0.00000000       0.00000000       1.00000000 </v>
   <v name="shift">      0.00000000       0.00000000       0.00000000 </v>
  </generation>
  <varray name="kpointlist" >
   <v>       0.00000000       0.00000000       0.00000000 </v>
   <v>       0.04166667       0.00000000       0.00000000 </v>
   <v>       0.08333333       0.00000000       0.00000000 </v>
   <v>       0.12500000       0.00000000       0.00000000 </v>
   <v>       0.16666667       0.00000000       0.00000000 </v>
   <v>       0.20833333       0.00000000       0.00000000 </v>
   <v>       0.25000000       0.00000000       0.00000000 </v>
   <v>       0.29166667       0.00000000       0.00000000 </v>
   <v>       0.33333333       0.00000000       0.00000000 </v>
   <v>       0.37500000       0.00000000       0.00000000 </v>
   <v>       0.41666667       0.00000000       0.00000000 </v>
   <v>       0.45833333       0.00000000       0.00000000 </v>
   <v>       0.50000000       0.00000000       0.00000000 </v>
   <v>       0.00000000       0.02777778       0.00000000 </v>
   <v>       0.04166667       0.02777778       0.00000000 </v>
   <v>       0.08333333       0.02777778       0.00000000 </v>
   <v>       0.12500000       0.02777778       0.00000000 </v>
   <v>       0.16666667       0.02777778       0.00000000 </v>
   <v>       0.20833333       0.02777778       0.00000000 </v>
   <v>       0.25000000       0.02777778       0.00000000 </v>
   <v>       0.29166667       0.02777778       0.00000000 </v>
   <v>       0.33333333       0.02777778       0.00000000 </v>
   <v>       0.37500000       0.02777778       0.00000000 </v>
   <v>       0.41666667       0.02777778       0.00000000 </v>
   <v>       0.45833333       0.02777778       0.00000000 </v>
   <v>       0.50000000       0.02777778       0.00000000 </v>
   <v>       0.00000000       0.05555556       0.00000000 </v>
   <v>       0.04166667       0.05555556       0.00000000 </v>
   <v>       0.08333333       0.05555556       0.00000000 </v>
   <v>       0.12500000       0.05555556       0.00000000 </v>
   <v>       0.16666667       0.05555556       0.00000000 </v>
   <v>       0.20833333       0.05555556       0.00000000 </v>
   <v>       0.25000000       0.05555556       0.00000000 </v>
   <v>       0.29166667       0.05555556       0.00000000 </v>
   <v>       0.33333333       0.05555556       0.00000000 </v>
   <v>       0.37500000       0.05555556       0.00000000 </v>
   <v>       0.41666667       0.05555556       0.00000000 </v>
   <v>       0.45833333       0.05555556       0.00000000 </v>
   <v>       0.50000000       0.05555556       0.00000000 </v>
   <v>       0.00000000       0.08333333       0.00000000 </v>
   <v>       0.04166667       0.08333333       0.00000000 </v>
   <v>       0.08333333       0.08333333       0.00000000 </v>
   <v>       0.12500000       0.08333333       0.00000000 </v>
   <v>       0.16666667       0.08333333       0.00000000 </v>
   <v>       0.20833333       0.08333333       0.00000000 </v>
   <v>       0.25000000       0.08333333       0.00000000 </v>
   <v>       0.29166667       0.08333333       0.00000000 </v>
   <v>       0.33333333       0.08333333       0.00000000 </v>
   <v>       0.37500000       0.08333333       0.00000000 </v>
   <v>       0.41666667       0.08333333       0.00000000 </v>
   <v>       0.45833333       0.08333333       0.00000000 </v>
   <v>       0.50000000       0.08333333       0.00000000 </v>
   <v>       0.00000000       0.11111111       0.00000000 </v>
   <v>       0.04166667       0.11111111       0.00000000 </v>
   <v>       0.08333333       0.11111111       0.00000000 </v>
   <v>       0.12500000       0.11111111       0.00000000 </v>
   <v>       0.16666667       0.11111111       0.00000000 </v>
   <v>       0.20833333       0.11111111       0.00000000 </v>
   <v>       0.25000000       0.11111111       0.00000000 </v>
   <v>       0.29166667       0.11111111       0.00000000 </v>
   <v>       0.33333333       0.11111111       0.00000000 </v>
   <v>       0.37500000       0.11111111       0.00000000 </v>
   <v>       0.41666667       0.11111111       0.00000000 </v>
   <v>       0.45833333       0.11111111       0.00000000 </v>
   <v>       0.50000000       0.11111111       0.00000000 </v>
   <v>       0.00000000       0.13888889       0.00000000 </v>
   <v>       0.04166667       0.13888889       0.00000000 </v>
   <v>       0.08333333       0.13888889       0.00000000 </v>
   <v>       0.12500000       0.13888889       0.00000000 </v>
   <v>       0.16666667       0.13888889       0.00000000 </v>
   <v>       0.20833333       0.13888889       0.00000000 </v>
   <v>       0.25000000       0.13888889       0.00000000 </v>
   <v>       0.29166667       0.13888889       0.00000000 </v>
   <v>       0.33333333       0.13888889       0.00000000 </v>
   <v>       0.37500000       0.13888889       0.00000000 </v>
   <v>       0.41666667       0.13888889       0.00000000 </v>
   <v>       0.45833333       0.13888889       0.00000000 </v>
   <v>       0.50000000       0.13888889       0.00000000 </v>
   <v>       0.00000000       0.16666667       0.00000000 </v>
   <v>       0.04166667       0.16666667       0.00000000 </v>
   <v>       0.08333333       0.16666667       0.00000000 </v>
   <v>       0.12500000       0.16666667       0.00000000 </v>
   <v>       0.16666667       0.16666667       0.00000000 </v>
   <v>       0.20833333       0.16666667       0.00000000 </v>
   <v>       0.25000000       0.16666667       0.00000000 </v>
   <v>       0.29166667       0.16666667       0.00000000 </v>
   <v>       0.33333333       0.16666667       0.00000000 </v>
   <v>       0.37500000       0.16666667       0.00000000 </v>
   <v>       0.41666667       0.16666667       0.00000000 </v>
   <v>       0.45833333       0.16666667       0.00000000 </v>
   <v>       0.50000000       0.16666667       0.00000000 </v>
   <v>       0.00000000       0.19444444       0.00000000 </v>
   <v>       0.04166667       0.19444444       0.00000000 </v>
   <v>       0.08333333       0.19444444       0.00000000 </v>
   <v>       0.12500000       0.19444444       0.00000000 </v>
   <v>       0.16666667       0.19444444       0.00000000 </v>
   <v>       0.20833333       0.19444444       0.00000000 </v>
   <v>       0.25000000       0.19444444       0.00000000 </v>
   <v>       0.29166667       0.19444444       0.00000000 </v>
   <v>       0.33333333       0.19444444       0.00000000 </v>
   <v>       0.37500000       0.19444444       0.00000000 </v>
   <v>       0.41666667       0.19444444       0.00000000 </v>
   <v>       0.45833333       0.19444444       0.00000000 </v>
   <v>       0.50000000       0.19444444       0.00000000 </v>
   <v>       0.00000000       0.22222222       0.00000000 </v>
   <v>       0.04166667       0.22222222       0.00000000 </v>
   <v>       0.08333333       0.22222222       0.00000000 </v>
   <v>       0.12500000       0.22222222       0.00000000 </v>
   <v>       0.16666667       0.22222222       0.00000000 </v>
   <v>       0.20833333       0.22222222       0.00000000 </v>
   <v>       0.25000000       0.22222222       0.00000000 </v>
   <v>       0.29166667       0.22222222       0.00000000 </v>
   <v>       0.33333333       0.22222222       0.00000000 </v>
   <v>       0.37500000       0.22222222       0.00000000 </v>
   <v>       0.41666667       0.22222222       0.00000000 </v>
   <v>       0.45833333       0.22222222       0.00000000 </v>
   <v>       0.50000000       0.22222222       0.00000000 </v>
   <v>       0.00000000       0.25000000       0.00000000 </v>
   <v>       0.04166667       0.25000000       0.00000000 </v>
   <v>       0.08333333       0.25000000       0.00000000 </v>
   <v>       0.12500000       0.25000000       0.00000000 </v>
   <v>       0.16666667       0.25000000       0.00000000 </v>
   <v>       0.20833333       0.25000000       0.00000000 </v>
   <v>       0.25000000       0.25000000       0.00000000 </v>
   <v>       0.29166667       0.25000000       0.00000000 </v>
   <v>       0.33333333       0.25000000       0.00000000 </v>
   <v>       0.37500000       0.25000000       0.00000000 </v>
   <v>       0.41666667       0.25000000       0.00000000 </v>
   <v>       0.45833333       0.25000000       0.00000000 </v>
   <v>       0.50000000       0.25000000       0.00000000 </v>
   <v>       0.00000000       0.27777778       0.00000000 </v>
   <v>       0.04166667       0.27777778       0.00000000 </v>
   <v>       0.08333333       0.27777778       0.00000000 </v>
   <v>       0.12500000       0.27777778       0.00000000 </v>
   <v>       0.16666667       0.27777778       0.00000000 </v>
   <v>       0.20833333       0.27777778       0.00000000 </v>
   <v>       0.25000000       0.27777778       0.00000000 </v>
   <v>       0.29166667       0.27777778       0.00000000 </v>
   <v>       0.33333333       0.27777778       0.00000000 </v>
   <v>       0.37500000       0.27777778       0.00000000 </v>
   <v>       0.41666667       0.27777778       0.00000000 </v>
   <v>       0.45833333       0.27777778       0.00000000 </v>
   <v>       0.50000000       0.27777778       0.00000000 </v>
   <v>       0.00000000       0.30555556       0.00000000 </v>
   <v>       0.04166667       0.30555556       0.00000000 </v>
   <v>       0.08333333       0.30555556       0.00000000 </v>
   <v>       0.12500000       0.30555556       0.00000000 </v>
   <v>       0.16666667       0.30555556       0.00000000 </v>
   <v>       0.20833333       0.30555556       0.00000000 </v>
   <v>       0.25000000       0.30555556       0.00000000 </v>
   <v>       0.29166667       0.30555556       0.00000000 </v>
   <v>       0.33333333       0.30555556       0.00000000 </v>
   <v>       0.37500000       0.30555556       0.00000000 </v>
   <v>       0.41666667       0.30555556       0.00000000 </v>
   <v>       0.45833333       0.30555556       0.00000000 </v>
   <v>       0.50000000       0.30555556       0.00000000 </v>
   <v>       0.00000000       0.33333333       0.00000000 </v>
   <v>       0.04166667       0.33333333       0.00000000 </v>
   <v>       0.08333333       0.33333333       0.00000000 </v>
   <v>       0.12500000       0.33333333       0.00000000 </v>
   <v>       0.16666667       0.33333333       0.00000000 </v>
   <v>       0.20833333       0.33333333       0.00000000 </v>
   <v>       0.25000000       0.33333333       0.00000000 </v>
   <v>       0.29166667       0.33333333       0.00000000 </v>
   <v>       0.33333333       0.33333333       0.00000000 </v>
   <v>       0.37500000       0.33333333       0.00000000 </v>
   <v>       0.41666667       0.33333333       0.00000000 </v>
   <v>       0.45833333       0.33333333       0.00000000 </v>
   <v>       0.50000000       0.33333333       0.00000000 </v>
   <v>       0.00000000       0.36111111       0.00000000 </v>
   <v>       0.04166667       0.36111111       0.00000000 </v>
   <v>       0.08333333       0.36111111       0.00000000 </v>
   <v>       0.12500000       0.36111111       0.00000000 </v>
   <v>       0.16666667       0.36111111       0.00000000 </v>
   <v>       0.20833333       0.36111111       0.00000000 </v>
   <v>       0.25000000       0.36111111       0.00000000 </v>
   <v>       0.29166667       0.36111111       0.00000000 </v>
   <v>       0.33333333       0.36111111       0.00000000 </v>
   <v>       0.37500000       0.36111111       0.00000000 </v>
   <v>       0.41666667       0.36111111       0.00000000 </v>
   <v>       0.45833333       0.36111111       0.00000000 </v>
   <v>       0.50000000       0.36111111       0.00000000 </v>
   <v>       0.00000000       0.38888889       0.00000000 </v>
   <v>       0.04166667       0.38888889       0.00000000 </v>
   <v>       0.08333333       0.38888889       0.00000000 </v>
   <v>       0.12500000       0.38888889       0.00000000 </v>
   <v>       0.16666667       0.38888889       0.00000000 </v>
   <v>       0.20833333       0.38888889       0.00000000 </v>
   <v>       0.25000000       0.38888889       0.00000000 </v>
   <v>       0.29166667       0.38888889       0.00000000 </v>
   <v>       0.33333333       0.38888889       0.00000000 </v>
   <v>       0.37500000       0.38888889       0.00000000 </v>
   <v>       0.41666667       0.38888889       0.00000000 </v>
   <v>       0.45833333       0.38888889       0.00000000 </v>
   <v>       0.50000000       0.38888889       0.00000000 </v>
   <v>       0.00000000       0.41666667       0.00000000 </v>
   <v>       0.04166667       0.41666667       0.00000000 </v>
   <v>       0.08333333       0.41666667       0.00000000 </v>
   <v>       0.12500000       0.41666667       0.00000000 </v>
   <v>       0.16666667       0.41666667       0.00000000 </v>
   <v>       0.20833333       0.41666667       0.00000000 </v>
   <v>       0.25000000       0.41666667       0.00000000 </v>
   <v>       0.29166667       0.41666667       0.00000000 </v>
   <v>       0.33333333       0.41666667       0.00000000 </v>
   <v>       0.37500000       0.41666667       0.00000000 </v>
   <v>       0.41666667       0.41666667       0.00000000 </v>
   <v>       0.45833333       0.41666667       0.00000000 </v>
   <v>       0.50000000       0.41666667       0.00000000 </v>
   <v>       0.00000000       0.44444444       0.00000000 </v>
   <v>       0.04166667       0.44444444       0.00000000 </v>
   <v>       0.08333333       0.44444444       0.00000000 </v>
   <v>       0.12500000       0.44444444       0.00000000 </v>
   <v>       0.16666667       0.44444444       0.00000000 </v>
   <v>       0.20833333       0.44444444       0.00000000 </v>
   <v>       0.25000000       0.44444444       0.00000000 </v>
   <v>       0.29166667       0.44444444       0.00000000 </v>
   <v>       0.33333333       0.44444444       0.00000000 </v>
   <v>       0.37500000       0.44444444       0.00000000 </v>
   <v>       0.41666667       0.44444444       0.00000000 </v>
   <v>       0.45833333       0.44444444       0.00000000 </v>
   <v>       0.50000000       0.44444444       0.00000000 </v>
   <v>       0.00000000       0.47222222       0.00000000 </v>
   <v>       0.04166667       0.47222222       0.00000000 </v>
   <v>       0.08333333       0.47222222       0.00000000 </v>
   <v>       0.12500000       0.47222222       0.00000000 </v>
   <v>       0.16666667       0.47222222       0.00000000 </v>
   <v>       0.20833333       0.47222222       0.00000000 </v>
   <v>       0.25000000       0.47222222       0.00000000 </v>
   <v>       0.29166667       0.47222222       0.00000000 </v>
   <v>       0.33333333       0.47222222       0.00000000 </v>
   <v>       0.37500000       0.47222222       0.00000000 </v>
   <v>       0.41666667       0.47222222       0.00000000 </v>
   <v>       0.45833333       0.47222222       0.00000000 </v>
   <v>       0.50000000       0.47222222       0.00000000 </v>
   <v>       0.00000000       0.50000000       0.00000000 </v>
   <v>       0.04166667       0.50000000       0.00000000 </v>
   <v>       0.08333333       0.50000000       0.00000000 </v>
   <v>       0.12500000       0.50000000       0.00000000 </v>
   <v>       0.16666667       0.50000000       0.00000000 </v>
   <v>       0.20833333       0.50000000       0.00000000 </v>
   <v>       0.25000000       0.50000000       0.00000000 </v>
   <v>       0.29166667       0.50000000       0.00000000 </v>
   <v>       0.33333333       0.50000000       0.00000000 </v>
   <v>       0.37500000       0.50000000       0.00000000 </v>
   <v>       0.41666667       0.50000000       0.00000000 </v>
   <v>       0.45833333       0.50000000       0.00000000 </v>
   <v>       0.50000000       0.50000000       0.00000000 </v>
  </varray>
  <varray name="weights" >
   <v>       0.00115741 </v>
   <v>       0.00231481 </v>
   <v>       0.00231481 </v>
   <v>       0.00231481 </v>
   <v>       0.00231481 </v>
   <v>       0.00231481 </v>
   <v>       0.00231481 </v>
   <v>       0.00231481 </v>
   <v>       0.00231481 </v>
   <v>       0.00231481 </v>
   <v>       0.00231481 </v>
   <v>       0.00231481 </v>
   <v>       0.00115741 </v>
   <v>       0.00231481 </v>
   <v>       0.00462963 </v>
   <v>       0.00462963 </v>
   <v>       0.00462963 </v>
   <v>       0.00462963 </v>
   <v>       0.00462963 </v>
   <v>       0.00462963 </v>
   <v>       0.00462963 </v>
   <v>       0.00462963 </v>
   <v>       0.00462963 </v>
   <v>       0.00462963 </v>
   <v>       0.00462963 </v>
   <v>       0.00231481 </v>
   <v>       0.00231481 </v>
   <v>       0.00462963 </v>
   <v>       0.00462963 </v>
   <v>       0.00462963 </v>
   <v>       0.00462963 </v>
   <v>       0.00462963 </v>
   <v>       0.00462963 </v>
   <v>       0.00462963 </v>
   <v>       0.00462963 </v>
   <v>       0.00462963 </v>
   <v>       0.00462963 </v>
   <v>       0.00462963 </v>
   <v>       0.00231481 </v>
   <v>       0.00231481 </v>
   <v>       0.00462963 </v>
   <v>       0.00462963 </v>
   <v>       0.00462963 </v>
   <v>       0.00462963 </v>
   <v>       0.00462963 </v>
   <v>       0.00462963 </v>
   <v>       0.00462963 </v>
   <v>       0.00462963 </v>
   <v>       0.00462963 </v>
   <v>       0.00462963 </v>
   <v>       0.00462963 </v>
   <v>       0.00231481 </v>
   <v>       0.00231481 </v>
   <v>       0.00462963 </v>
   <v>       0.00462963 </v>
   <v>       0.00462963 </v>
   <v>       0.00462963 </v>
   <v>       0.00462963 </v>
   <v>       0.00462963 </v>
   <v>       0.00462963 </v>
   <v>       0.00462963 </v>
   <v>       0.00462963 </v>
   <v>       0.00462963 </v>
   <v>       0.00462963 </v>
   <v>       0.00231481 </v>
   <v>       0.00231481 </v>
   <v>       0.00462963 </v>
   <v>       0.00462963 </v>
   <v>       0.00462963 </v>
   <v>       0.00462963 </v>
   <v>       0.00462963 </v>
   <v>       0.00462963 </v>
   <v>       0.00462963 </v>
   <v>       0.00462963 </v>
   <v>       0.00462963 </v>
   <v>       0.00462963 </v>
   <v>       0.00462963 </v>
   <v>       0.00231481 </v>
   <v>       0.00231481 </v>
   <v>       0.00462963 </v>
   <v>       0.00462963 </v>
   <v>       0.00462963 </v>
   <v>       0.00462963 </v>
   <v>       0.00462963 </v>
   <v>       0.00462963 </v>
   <v>       0.00462963 </v>
   <v>       0.00462963 </v>
   <v>       0.00462963 </v>
   <v>       0.00462963 </v>
   <v>       0.00462963 </v>
   <v>       0.00231481 </v>
   <v>       0.00231481 </v>
   <v>       0.00462963 </v>
   <v>       0.00462963 </v>
   <v>       0.00462963 </v>
   <v>       0.00462963 </v>
   <v>       0.00462963 </v>
   <v>       0.00462963 </v>
   <v>       0.00462963 </v>
   <v>       0.00462963 </v>
   <v>       0.00462963 </v>
   <v>       0.00462963 </v>
   <v>       0.00462963 </v>
   <v>       0.00231481 </v>
   <v>       0.00231481 </v>
   <v>       0.00462963 </v>
   <v>       0.00462963 </v>
   <v>       0.00462963 </v>
   <v>       0.00462963 </v>
   <v>       0.00462963 </v>
   <v>       0.00462963 </v>
   <v>       0.00462963 </v>
   <v>       0.00462963 </v>
   <v>       0.00462963 </v>
   <v>       0.00462963 </v>
   <v>       0.00462963 </v>
   <v>       0.00231481 </v>
   <v>       0.00231481 </v>
   <v>       0.00462963 </v>
   <v>       0.00462963 </v>
   <v>       0.00462963 </v>
   <v>       0.00462963 </v>
   <v>       0.00462963 </v>
   <v>       0.00462963 </v>
   <v>       0.00462963 </v>
   <v>       0.00462963 </v>
   <v>       0.00462963 </v>
   <v>       0.00462963 </v>
   <v>       0.00462963 </v>
   <v>       0.00231481 </v>
   <v>       0.00231481 </v>
   <v>       0.00462963 </v>
   <v>       0.00462963 </v>
   <v>       0.00462963 </v>
   <v>       0.00462963 </v>
   <v>       0.00462963 </v>
   <v>       0.00462963 </v>
   <v>       0.00462963 </v>
   <v>       0.00462963 </v>
   <v>       0.00462963 </v>
   <v>       0.00462963 </v>
   <v>       0.00462963 </v>
   <v>       0.00231481 </v>
   <v>       0.00231481 </v>
   <v>       0.00462963 </v>
   <v>       0.00462963 </v>
   <v>       0.00462963 </v>
   <v>       0.00462963 </v>
   <v>       0.00462963 </v>
   <v>       0.00462963 </v>
   <v>       0.00462963 </v>
   <v>       0.00462963 </v>
   <v>       0.00462963 </v>
   <v>       0.00462963 </v>
   <v>       0.00462963 </v>
   <v>       0.00231481 </v>
   <v>       0.00231481 </v>
   <v>       0.00462963 </v>
   <v>       0.00462963 </v>
   <v>       0.00462963 </v>
   <v>       0.00462963 </v>
   <v>       0.00462963 </v>
   <v>       0.00462963 </v>
   <v>       0.00462963 </v>
   <v>       0.00462963 </v>
   <v>       0.00462963 </v>
   <v>       0.00462963 </v>
   <v>       0.00462963 </v>
   <v>       0.00231481 </v>
   <v>       0.00231481 </v>
   <v>       0.00462963 </v>
   <v>       0.00462963 </v>
   <v>       0.00462963 </v>
   <v>       0.00462963 </v>
   <v>       0.00462963 </v>
   <v>       0.00462963 </v>
   <v>       0.00462963 </v>
   <v>       0.00462963 </v>
   <v>       0.00462963 </v>
   <v>       0.00462963 </v>
   <v>       0.00462963 </v>
   <v>       0.00231481 </v>
   <v>       0.00231481 </v>
   <v>       0.00462963 </v>
   <v>       0.00462963 </v>
   <v>       0.00462963 </v>
   <v>       0.00462963 </v>
   <v>       0.00462963 </v>
   <v>       0.00462963 </v>
   <v>       0.00462963 </v>
   <v>       0.00462963 </v>
   <v>       0.00462963 </v>
   <v>       0.00462963 </v>
   <v>       0.00462963 </v>
   <v>       0.00231481 </v>
   <v>       0.00231481 </v>
   <v>       0.00462963 </v>
   <v>       0.00462963 </v>
   <v>       0.00462963 </v>
   <v>       0.00462963 </v>
   <v>       0.00462963 </v>
   <v>       0.00462963 </v>
   <v>       0.00462963 </v>
   <v>       0.00462963 </v>
   <v>       0.00462963 </v>
   <v>       0.00462963 </v>
   <v>       0.00462963 </v>
   <v>       0.00231481 </v>
   <v>       0.00231481 </v>
   <v>       0.00462963 </v>
   <v>       0.00462963 </v>
   <v>       0.00462963 </v>
   <v>       0.00462963 </v>
   <v>       0.00462963 </v>
   <v>       0.00462963 </v>
   <v>       0.00462963 </v>
   <v>       0.00462963 </v>
   <v>       0.00462963 </v>
   <v>       0.00462963 </v>
   <v>       0.00462963 </v>
   <v>       0.00231481 </v>
   <v>       0.00231481 </v>
   <v>       0.00462963 </v>
   <v>       0.00462963 </v>
   <v>       0.00462963 </v>
   <v>       0.00462963 </v>
   <v>       0.00462963 </v>
   <v>       0.00462963 </v>
   <v>       0.00462963 </v>
   <v>       0.00462963 </v>
   <v>       0.00462963 </v>
   <v>       0.00462963 </v>
   <v>       0.00462963 </v>
   <v>       0.00231481 </v>
   <v>       0.00115741 </v>
   <v>       0.00231481 </v>
   <v>       0.00231481 </v>
   <v>       0.00231481 </v>
   <v>       0.00231481 </v>
   <v>       0.00231481 </v>
   <v>       0.00231481 </v>
   <v>       0.00231481 </v>
   <v>       0.00231481 </v>
   <v>       0.00231481 </v>
   <v>       0.00231481 </v>
   <v>       0.00231481 </v>
   <v>       0.00115741 </v>
  </varray>
 </kpoints>
 <parameters>
  <separator name="general" >
   <i type="string" name="SYSTEM">gr</i>
   <i type="logical" name="LCOMPAT"> F  </i>
  </separator>
  <separator name="electronic" >
   <i type="string" name="PREC">accura</i>
   <i name="ENMAX">   2000.00000000</i>
   <i name="ENAUG">    644.87300000</i>
   <i name="EDIFF">      0.00000000</i>
   <i type="int" name="IALGO">    68</i>
   <i type="int" name="IWAVPR">    11</i>
   <i type="int" name="NBANDS">    12</i>
   <i name="NELECT">     16.00000000</i>
   <i type="int" name="TURBO">     0</i>
   <i type="int" name="IRESTART">     0</i>
   <i type="int" name="NREBOOT">     0</i>
   <i type="int" name="NMIN">     0</i>
   <i name="EREF">      0.00000000</i>
   <separator name="electronic smearing" >
    <i type="int" name="ISMEAR">     0</i>
    <i name="SIGMA">      0.05000000</i>
    <i name="KSPACING">      0.50000000</i>
    <i type="logical" name="KGAMMA"> T  </i>
   </separator>
   <separator name="electronic projectors" >
    <i type="logical" name="LREAL"> F  </i>
    <v name="ROPT">      0.00000000</v>
    <i type="int" name="LMAXPAW">  -100</i>
    <i type="int" name="LMAXMIX">     2</i>
    <i type="logical" name="NLSPLINE"> F  </i>
   </separator>
   <separator name="electronic startup" >
    <i type="int" name="ISTART">     0</i>
    <i type="int" name="ICHARG">     2</i>
    <i type="int" name="INIWAV">     1</i>
   </separator>
   <separator name="electronic spin" >
    <i type="int" name="ISPIN">     1</i>
    <i type="logical" name="LNONCOLLINEAR"> F  </i>
    <v name="MAGMOM">      1.00000000      1.00000000      1.00000000      1.00000000</v>
    <i name="NUPDOWN">     -1.00000000</i>
    <i type="logical" name="LSORBIT"> F  </i>
    <v name="SAXIS">      0.00000000      0.00000000      1.00000000</v>
    <i type="logical" name="LSPIRAL"> F  </i>
    <v name="QSPIRAL">      0.00000000      0.00000000      0.00000000</v>
    <i type="logical" name="LZEROZ"> F  </i>
   </separator>
   <separator name="electronic exchange-correlation" >
    <i type="logical" name="LASPH"> F  </i>
    <i type="logical" name="LMETAGGA"> F  </i>
   </separator>
   <separator name="electronic convergence" >
    <i type="int" name="NELM">   100</i>
    <i type="int" name="NELMDL">    -3</i>
    <i type="int" name="NELMIN">     5</i>
    <i name="ENINI">   2000.00000000</i>
    <separator name="electronic convergence detail" >
     <i type="logical" name="LDIAG"> T  </i>
     <i type="logical" name="LSUBROT"> F  </i>
     <i name="WEIMIN">      0.00100000</i>
     <i name="EBREAK">      0.00000000</i>
     <i name="DEPER">      0.30000000</i>
     <i type="int" name="NRMM">     4</i>
     <i name="TIME">      0.40000000</i>
    </separator>
   </separator>
   <separator name="electronic mixer" >
    <i name="AMIX">      0.40000000</i>
    <i name="BMIX">      1.00000000</i>
    <i name="AMIN">      0.10000000</i>
    <i name="AMIX_MAG">      1.60000000</i>
    <i name="BMIX_MAG">      1.00000000</i>
    <separator name="electronic mixer details" >
     <i type="int" name="IMIX">     4</i>
     <i type="int" name="MAXMIX">   -45</i>
     <i name="WC">    100.00000000</i>
     <i type="int" name="INIMIX">     1</i>
     <i type="int" name="MIXPRE">     1</i>
     <i type="int" name="MREMOVE">     5</i>
    </separator>
   </separator>
   <separator name="electronic dipolcorrection" >
    <i type="logical" name="LDIPOL"> F  </i>
    <i type="logical" name="LMONO"> F  </i>
    <i type="int" name="IDIPOL">     0</i>
    <i name="EPSILON">      1.00000000</i>
    <v name="DIPOL">   -100.00000000   -100.00000000   -100.00000000</v>
    <i name="EFIELD">      0.00000000</i>
   </separator>
  </separator>
  <separator name="grids" >
   <i type="int" name="NGX">    64</i>
   <i type="int" name="NGY">    36</i>
   <i type="int" name="NGZ">   288</i>
   <i type="int" name="NGXF">   128</i>
   <i type="int" name="NGYF">    72</i>
   <i type="int" name="NGZF">   576</i>
   <i type="logical" name="ADDGRID"> F  </i>
  </separator>
  <separator name="ionic" >
   <i type="int" name="NSW">   400</i>
   <i type="int" name="IBRION">     1</i>
   <i type="int" name="ISIF">     2</i>
   <i name="PSTRESS">      0.00000000</i>
   <i name="EDIFFG">     -0.00000100</i>
   <i type="int" name="NFREE">     0</i>
   <i name="POTIM">      0.50000000</i>
   <i name="SMASS">     -3.00000000</i>
   <i name="SCALEE">      1.00000000</i>
  </separator>
  <separator name="ionic md" >
   <i name="TEBEG">      0.00010000</i>
   <i name="TEEND">      0.00010000</i>
   <i type="int" name="NBLOCK">     1</i>
   <i type="int" name="KBLOCK">   400</i>
   <i type="int" name="NPACO">   256</i>
   <i name="APACO">     16.00000000</i>
  </separator>
  <separator name="symmetry" >
   <i type="int" name="ISYM">     2</i>
   <i name="SYMPREC">      0.00001000</i>
  </separator>
  <separator name="dos" >
   <i type="logical" name="LORBIT"> F  </i>
   <v name="RWIGS">     -1.00000000</v>
   <i type="int" name="NEDOS">   301</i>
   <i name="EMIN">     10.00000000</i>
   <i name="EMAX">    -10.00000000</i>
   <i name="EFERMI">      0.00000000</i>
  </separator>
  <separator name="writing" >
   <i type="int" name="NWRITE">     2</i>
   <i type="logical" name="LWAVE"> F  </i>
   <i type="logical" name="LCHARG"> F  </i>
   <i type="logical" name="LPARD"> F  </i>
   <i type="logical" name="LVTOT"> F  </i>
   <i type="logical" name="LVHAR"> F  </i>
   <i type="logical" name="LELF"> F  </i>
   <i type="logical" name="LOPTICS"> F  </i>
   <v name="STM">      0.00000000      0.00000000      0.00000000      0.00000000      0.00000000      0.00000000      0.00000000</v>
  </separator>
  <separator name="performance" >
   <i type="int" name="NPAR">     4</i>
   <i type="int" name="NSIM">     4</i>
   <i type="int" name="NBLK">    -1</i>
   <i type="logical" name="LPLANE"> T  </i>
   <i type="logical" name="LSCALAPACK"> F  </i>
   <i type="logical" name="LSCAAWARE"> F  </i>
   <i type="logical" name="LSCALU"> F  </i>
   <i type="logical" name="LASYNC"> F  </i>
   <i type="logical" name="LORBITALREAL"> F  </i>
  </separator>
  <separator name="miscellaneous" >
   <i type="int" name="IDIOT">     3</i>
   <i type="logical" name="LMUSIC"> F  </i>
   <v name="POMASS">     12.01100000</v>
   <v name="DARWINR">      0.00000000</v>
   <v name="DARWINV">      1.00000000</v>
   <i type="logical" name="LCORR"> T  </i>
  </separator>
  <i type="logical" name="GGA_COMPAT"> T  </i>
  <i type="logical" name="LBERRY"> F  </i>
  <i type="int" name="ICORELEVEL">     0</i>
  <i type="logical" name="LDAU"> F  </i>
  <i type="int" name="I_CONSTRAINED_M">     0</i>
  <separator name="electronic exchange-correlation" >
   <i type="string" name="GGA">--</i>
   <i type="int" name="VOSKOWN">     0</i>
   <i type="logical" name="LHFCALC"> F  </i>
   <i type="string" name="PRECFOCK"></i>
   <i type="logical" name="LSYMGRAD"> F  </i>
   <i type="logical" name="LHFONE"> F  </i>
   <i type="logical" name="LRHFCALC"> F  </i>
   <i type="logical" name="LTHOMAS"> F  </i>
   <i type="logical" name="LMODELHF"> F  </i>
   <i name="ENCUT4O">     -1.00000000</i>
   <i type="int" name="EXXOEP">     0</i>
   <i type="int" name="FOURORBIT">     0</i>
   <i name="AEXX">      0.00000000</i>
   <i name="HFALPHA">      0.00000000</i>
   <i name="MCALPHA">      0.00000000</i>
   <i name="ALDAX">      1.00000000</i>
   <i name="AGGAX">      1.00000000</i>
   <i name="ALDAC">      1.00000000</i>
   <i name="AGGAC">      1.00000000</i>
   <i type="int" name="NKREDX">     1</i>
   <i type="int" name="NKREDY">     1</i>
   <i type="int" name="NKREDZ">     1</i>
   <i type="logical" name="SHIFTRED"> F  </i>
   <i type="logical" name="ODDONLY"> F  </i>
   <i type="logical" name="EVENONLY"> F  </i>
   <i type="int" name="LMAXFOCK">     0</i>
   <i type="int" name="NMAXFOCKAE">     0</i>
   <i type="logical" name="LFOCKAEDFT"> F  </i>
   <i name="HFSCREEN">      0.00000000</i>
   <i name="HFSCREENC">      0.00000000</i>
   <i type="int" name="NBANDSGWLOW">     0</i>
  </separator>
  <separator name="vdW DFT" >
   <i type="logical" name="LUSE_VDW"> F  </i>
   <i name="Zab_VDW">     -0.84910000</i>
   <i name="PARAM1">      0.12340000</i>
   <i name="PARAM2">      1.00000000</i>
   <i name="PARAM3">      0.00000000</i>
  </separator>
  <separator name="model GW" >
   <i type="int" name="MODEL_GW">     0</i>
   <i name="MODEL_EPS0">     31.62568521</i>
   <i name="MODEL_ALPHA">      1.00000000</i>
  </separator>
  <separator name="linear response parameters" >
   <i type="logical" name="LEPSILON"> F  </i>
   <i type="logical" name="LRPA"> F  </i>
   <i type="logical" name="LNABLA"> F  </i>
   <i type="logical" name="LVEL"> F  </i>
   <i type="int" name="KINTER">     0</i>
   <i name="CSHIFT">      0.10000000</i>
   <i name="OMEGAMAX">     -1.00000000</i>
   <i name="DEG_THRESHOLD">      0.00200000</i>
  </separator>
  <separator name="orbital magnetization" >
   <i type="logical" name="NUCIND"> F  </i>
   <v name="MAGPOS">      0.00000000      0.00000000      0.00000000</v>
   <i type="logical" name="LNICSALL"> T  </i>
   <i type="logical" name="ORBITALMAG"> F  </i>
   <i type="logical" name="LMAGBLOCH"> F  </i>
   <i type="logical" name="LCHIMAG"> F  </i>
   <i type="logical" name="LGAUGE"> T  </i>
   <i type="int" name="MAGATOM">     0</i>
   <v name="MAGDIPOL">      0.00000000      0.00000000      0.00000000</v>
   <v name="AVECCONST">      0.00000000      0.00000000      0.00000000</v>
  </separator>
  <separator name="response functions" >
   <i type="logical" name="LADDER"> F  </i>
   <i type="logical" name="LFXC"> F  </i>
   <i type="logical" name="LHARTREE"> T  </i>
   <i type="int" name="IBSE">     0</i>
   <i type="logical" name="LTCTE"> F  </i>
   <i type="logical" name="LTETE"> F  </i>
   <i type="logical" name="LTRIPLET"> F  </i>
   <i type="logical" name="LFXCEPS"> F  </i>
   <i type="logical" name="LFXHEG"> F  </i>
   <i type="logical" name="L2ORDER"> F  </i>
   <i type="logical" name="LUSEW"> F  </i>
   <i name="ENCUTGW">     -2.00000000</i>
   <i name="ENCUTGWSOFT">     -2.00000000</i>
   <i name="ENCUTLF">     -1.00000000</i>
   <i type="int" name="LMAXMP2">    -1</i>
   <i name="SCISSOR">      0.00000000</i>
   <i type="int" name="NOMEGA">     0</i>
   <i type="int" name="NOMEGAR">     0</i>
   <i type="int" name="NBANDSGW">    -1</i>
   <i type="int" name="NBANDSO">    -1</i>
   <i type="int" name="NBANDSV">    -1</i>
   <i type="int" name="NELM">   100</i>
   <i type="int" name="DIM">     3</i>
   <i type="int" name="ANTIRES">     0</i>
   <i name="OMEGAMAX">    -30.00000000</i>
   <i name="OMEGAMIN">    -30.00000000</i>
   <i name="OMEGATL">   -200.00000000</i>
   <i type="int" name="OMEGAGRID">     0</i>
   <i name="CSHIFT">     -0.10000000</i>
   <i type="logical" name="SELFENERGY"> F  </i>
   <i type="logical" name="LSPECTRAL"> F  </i>
   <i type="logical" name="ODDONLYGW"> F  </i>
   <i type="logical" name="EVENONLYGW"> F  </i>
   <i type="int" name="NKREDLFX">     1</i>
   <i type="int" name="NKREDLFY">     1</i>
   <i type="int" name="NKREDLFZ">     1</i>
   <i type="int" name="MAXMEM">  1800</i>
   <i type="int" name="TELESCOPE">     0</i>
   <i type="int" name="TAUPAR">     1</i>
  </separator>
  <separator name="External order field" >
   <i name="OFIELD_KAPPA">      0.00000000</i>
   <v name="OFIELD_K">      0.00000000      0.00000000      0.00000000</v>
   <i name="OFIELD_Q6_NEAR">      0.00000000</i>
   <i name="OFIELD_Q6_FAR">      0.00000000</i>
   <i name="OFIELD_A">      0.00000000</i>
  </separator>
 </parameters>
 <atominfo>
  <atoms>       4 </atoms>
  <types>       1 </types>
  <array name="atoms" >
   <dimension dim="1">ion</dimension>
   <field type="string">element</field>
   <field type="int">atomtype</field>
   <set>
    <rc><c>C </c><c>   1</c></rc>
    <rc><c>C </c><c>   1</c></rc>
    <rc><c>C </c><c>   1</c></rc>
    <rc><c>C </c><c>   1</c></rc>
   </set>
  </array>
  <array name="atomtypes" >
   <dimension dim="1">type</dimension>
   <field type="int">atomspertype</field>
   <field type="string">element</field>
   <field>mass</field>
   <field>valence</field>
   <field type="string">pseudopotential</field>
   <set>
    <rc><c>   4</c><c>C </c><c>     12.01100000</c><c>      4.00000000</c><c> PAW_PBE C 08Apr2002                    </c></rc>
   </set>
  </array>
 </atominfo>
 <structure name="initialpos" >
  <crystal>
   <varray name="basis" >
    <v>       4.37945591       0.00000000       0.00000000 </v>
    <v>       0.00000000       2.45723943       0.00000000 </v>
    <v>       0.00000000       0.00000000      19.59210280 </v>
   </varray>
   <i name="volume">    210.83790140 </i>
   <varray name="rec_basis" >
    <v>       0.22833887       0.00000000       0.00000000 </v>
    <v>       0.00000000       0.40696075       0.00000000 </v>
    <v>       0.00000000       0.00000000       0.05104097 </v>
   </varray>
  </crystal>
  <varray name="positions" >
   <v>       0.99945869       0.00000000       0.00000000 </v>
   <v>       0.16720798       0.50000000       0.00000000 </v>
   <v>       0.49945869       0.50000000       0.00000000 </v>
   <v>       0.66720798       0.00000000       0.00000000 </v>
  </varray>
 </structure>
 <calculation>
  <scstep>
   <time name="dav">  288.25  289.77</time>
   <time name="total">  290.81  292.42</time>
   <energy>
    <i name="alphaZ">      6.18334092 </i>
    <i name="ewald">   2450.03913143 </i>
    <i name="hartreedc">  -2879.51574942 </i>
    <i name="XCdc">     54.81831312 </i>
    <i name="pawpsdc">    151.32577238 </i>
    <i name="pawaedc">   -155.92769107 </i>
    <i name="eentropy">     -0.00222541 </i>
    <i name="bandstr">    -28.72853185 </i>
    <i name="atom">    588.62352690 </i>
    <i name="e_fr_energy">    186.81588702 </i>
    <i name="e_wo_entrp">    186.81811243 </i>
    <i name="e_0_energy">    186.81699973 </i>
   </energy>
  </scstep>
  <scstep>
   <time name="dav">  433.26  436.76</time>
   <time name="total">  433.27  436.78</time>
   <energy>
    <i name="e_fr_energy">     -9.04811892 </i>
    <i name="e_wo_entrp">     -9.04768012 </i>
    <i name="e_0_energy">     -9.04789952 </i>
   </energy>
  </scstep>
  <scstep>
   <time name="dav">  338.55  339.70</time>
   <time name="total">  368.14  370.00</time>
   <energy>
    <i name="e_fr_energy">    -38.08874946 </i>
    <i name="e_wo_entrp">    -38.08874946 </i>
    <i name="e_0_energy">    -38.08874946 </i>
   </energy>
  </scstep>
  <scstep>
   <time name="diag">   78.11   78.70</time>
   <time name="diis">  331.53  334.41</time>
   <time name="orth">    3.08    3.10</time>
   <time name="total">  444.33  448.16</time>
   <energy>
    <i name="e_fr_energy">    -37.57590344 </i>
    <i name="e_wo_entrp">    -37.57590343 </i>
    <i name="e_0_energy">    -37.57590343 </i>
   </energy>
  </scstep>
  <scstep>
   <time name="diag">   78.45   78.64</time>
   <time name="diis">  329.67  330.61</time>
   <time name="orth">    3.09    3.10</time>
   <time name="total">  443.68  444.92</time>
   <energy>
    <i name="e_fr_energy">    -36.86837507 </i>
    <i name="e_wo_entrp">    -36.86837504 </i>
    <i name="e_0_energy">    -36.86837505 </i>
   </energy>
  </scstep>
  <scstep>
   <time name="diag">   78.27   78.70</time>
   <time name="diis">  363.71  364.76</time>
   <time name="orth">    3.10    3.10</time>
   <time name="total">  476.78  478.44</time>
   <energy>
    <i name="e_fr_energy">    -36.87004928 </i>
    <i name="e_wo_entrp">    -36.87004926 </i>
    <i name="e_0_energy">    -36.87004927 </i>
   </energy>
  </scstep>
  <scstep>
   <time name="diag">   78.50   78.65</time>
   <time name="diis">  331.98  332.60</time>
   <time name="orth">    3.07    3.08</time>
   <time name="total">  445.77  447.66</time>
   <energy>
    <i name="e_fr_energy">    -36.86108092 </i>
    <i name="e_wo_entrp">    -36.86108091 </i>
    <i name="e_0_energy">    -36.86108091 </i>
   </energy>
  </scstep>
  <scstep>
   <time name="diag">   78.60   78.67</time>
   <time name="diis">  330.65  331.14</time>
   <time name="orth">    3.07    3.07</time>
   <time name="total">  444.01  445.17</time>
   <energy>
    <i name="e_fr_energy">    -36.85633017 </i>
    <i name="e_wo_entrp">    -36.85633015 </i>
    <i name="e_0_energy">    -36.85633016 </i>
   </energy>
  </scstep>
  <scstep>
   <time name="diag">   78.00   78.59</time>
   <time name="diis">  315.37  318.64</time>
   <time name="orth">    3.08    3.10</time>
   <time name="total">  428.42  432.69</time>
   <energy>
    <i name="e_fr_energy">    -36.85611955 </i>
    <i name="e_wo_entrp">    -36.85611952 </i>
    <i name="e_0_energy">    -36.85611953 </i>
   </energy>
  </scstep>
  <scstep>
   <time name="diag">   78.11   78.60</time>
   <time name="diis">  318.96  319.50</time>
   <time name="orth">    3.07    3.07</time>
   <time name="total">  432.12  433.39</time>
   <energy>
    <i name="e_fr_energy">    -36.85606910 </i>
    <i name="e_wo_entrp">    -36.85606907 </i>
    <i name="e_0_energy">    -36.85606909 </i>
   </energy>
  </scstep>
  <scstep>
   <time name="diag">   78.07   78.63</time>
   <time name="diis">  317.83  321.26</time>
   <time name="orth">    3.09    3.10</time>
   <time name="total">  430.90  435.15</time>
   <energy>
    <i name="e_fr_energy">    -36.85831749 </i>
    <i name="e_wo_entrp">    -36.85831747 </i>
    <i name="e_0_energy">    -36.85831748 </i>
   </energy>
  </scstep>
  <scstep>
   <time name="diag">   78.26   78.58</time>
   <time name="diis">  321.00  321.09</time>
   <time name="orth">    3.07    3.07</time>
   <time name="total">  434.52  435.02</time>
   <energy>
    <i name="e_fr_energy">    -36.85885115 </i>
    <i name="e_wo_entrp">    -36.85885113 </i>
    <i name="e_0_energy">    -36.85885114 </i>
   </energy>
  </scstep>
  <scstep>
   <time name="diag">   77.94   78.69</time>
   <time name="diis">  326.24  329.17</time>
   <time name="orth">    3.07    3.07</time>
   <time name="total">  439.22  443.24</time>
   <energy>
    <i name="e_fr_energy">    -36.85907897 </i>
    <i name="e_wo_entrp">    -36.85907895 </i>
    <i name="e_0_energy">    -36.85907896 </i>
   </energy>
  </scstep>
  <scstep>
   <time name="diag">   78.23   78.57</time>
   <time name="diis">  325.29  325.75</time>
   <time name="orth">    3.07    3.09</time>
   <time name="total">  438.83  439.76</time>
   <energy>
    <i name="e_fr_energy">    -36.85916125 </i>
    <i name="e_wo_entrp">    -36.85916123 </i>
    <i name="e_0_energy">    -36.85916124 </i>
   </energy>
  </scstep>
  <scstep>
   <time name="diag">   78.51   78.60</time>
   <time name="diis">  318.04  319.82</time>
   <time name="orth">    3.08    3.09</time>
   <time name="total">  431.81  433.88</time>
   <energy>
    <i name="e_fr_energy">    -36.85917383 </i>
    <i name="e_wo_entrp">    -36.85917381 </i>
    <i name="e_0_energy">    -36.85917382 </i>
   </energy>
  </scstep>
  <scstep>
   <time name="diag">   78.19   78.58</time>
   <time name="diis">  316.18  318.90</time>
   <time name="orth">    3.07    3.07</time>
   <time name="total">  429.32  432.88</time>
   <energy>
    <i name="e_fr_energy">    -36.85918660 </i>
    <i name="e_wo_entrp">    -36.85918658 </i>
    <i name="e_0_energy">    -36.85918659 </i>
   </energy>
  </scstep>
  <scstep>
   <time name="diag">   78.08   78.63</time>
   <time name="diis">  316.59  319.65</time>
   <time name="orth">    3.07    3.07</time>
   <time name="total">  429.22  433.16</time>
   <energy>
    <i name="e_fr_energy">    -36.85919264 </i>
    <i name="e_wo_entrp">    -36.85919262 </i>
    <i name="e_0_energy">    -36.85919263 </i>
   </energy>
  </scstep>
  <scstep>
   <time name="diag">   78.46   78.56</time>
   <time name="diis">  322.55  323.34</time>
   <time name="orth">    3.08    3.10</time>
   <time name="total">  436.47  437.43</time>
   <energy>
    <i name="e_fr_energy">    -36.85919360 </i>
    <i name="e_wo_entrp">    -36.85919358 </i>
    <i name="e_0_energy">    -36.85919359 </i>
   </energy>
  </scstep>
  <scstep>
   <time name="diag">   78.26   78.48</time>
   <time name="diis">  304.40  304.90</time>
   <time name="orth">    3.07    3.07</time>
   <time name="total">  418.23  419.49</time>
   <energy>
    <i name="e_fr_energy">    -36.85919433 </i>
    <i name="e_wo_entrp">    -36.85919431 </i>
    <i name="e_0_energy">    -36.85919432 </i>
   </energy>
  </scstep>
  <scstep>
   <time name="diag">   78.19   78.57</time>
   <time name="diis">  250.44  252.47</time>
   <time name="orth">    3.08    3.09</time>
   <time name="total">  363.53  367.19</time>
   <energy>
    <i name="e_fr_energy">    -36.85919437 </i>
    <i name="e_wo_entrp">    -36.85919434 </i>
    <i name="e_0_energy">    -36.85919435 </i>
   </energy>
  </scstep>
  <scstep>
   <time name="diag">   77.87   78.63</time>
   <time name="diis">  241.57  243.69</time>
   <time name="orth">    3.07    3.07</time>
   <time name="total">  354.38  357.76</time>
   <energy>
    <i name="e_fr_energy">    -36.85919438 </i>
    <i name="e_wo_entrp">    -36.85919436 </i>
    <i name="e_0_energy">    -36.85919437 </i>
   </energy>
  </scstep>
  <scstep>
   <time name="diag">   77.98   78.64</time>
   <time name="diis">  220.39  222.38</time>
   <time name="orth">    3.08    3.09</time>
   <time name="total">  303.91  306.62</time>
   <energy>
    <i name="alphaZ">      6.18334092 </i>
    <i name="ewald">   2450.03913143 </i>
    <i name="hartreedc">  -2944.32283706 </i>
    <i name="XCdc">     57.14329579 </i>
    <i name="pawpsdc">    268.85489128 </i>
    <i name="pawaedc">   -273.96654180 </i>
    <i name="eentropy">     -0.00000002 </i>
    <i name="bandstr">   -189.41400182 </i>
    <i name="atom">    588.62352690 </i>
    <i name="e_fr_energy">    -36.85919438 </i>
    <i name="e_wo_entrp">    -36.85919436 </i>
    <i name="e_0_energy">    -36.85919437 </i>
   </energy>
  </scstep>
  <structure>
   <crystal>
    <varray name="basis" >
     <v>       4.37945591       0.00000000       0.00000000 </v>
     <v>       0.00000000       2.45723943       0.00000000 </v>
     <v>       0.00000000       0.00000000      19.59210280 </v>
    </varray>
    <i name="volume">    210.83790140 </i>
    <varray name="rec_basis" >
     <v>       0.22833887       0.00000000       0.00000000 </v>
     <v>       0.00000000       0.40696075       0.00000000 </v>
     <v>       0.00000000       0.00000000       0.05104097 </v>
    </varray>
   </crystal>
   <varray name="positions" >
    <v>       0.99945869       0.00000000       0.00000000 </v>
    <v>       0.16720798       0.50000000       0.00000000 </v>
    <v>       0.49945869       0.50000000       0.00000000 </v>
    <v>       0.66720798       0.00000000       0.00000000 </v>
   </varray>
  </structure>
  <varray name="forces" >
   <v>       0.00171655       0.00000000       0.00000000 </v>
   <v>      -0.00171655      -0.00000000      -0.00000000 </v>
   <v>       0.00171655       0.00000000       0.00000000 </v>
   <v>      -0.00171655      -0.00000000      -0.00000000 </v>
  </varray>
  <varray name="stress" >
   <v>     -40.89984703       0.00000000       0.00000000 </v>
   <v>       0.00000000      -0.01704490       0.00000000 </v>
   <v>       0.00000000       0.00000000      -0.01037865 </v>
  </varray>
  <energy>
   <i name="e_fr_energy">    -36.85919438 </i>
   <i name="e_wo_entrp">    -36.85919437 </i>
   <i name="e_0_energy">     -0.00000002 </i>
  </energy>
  <time name="totalsc"> 9218.09 9272.34</time>
 </calculation>
 <calculation>
  <scstep>
   <time name="dav">  308.77  309.46</time>
   <time name="total">  340.37  341.13</time>
   <energy>
    <i name="alphaZ">      6.18334092 </i>
    <i name="ewald">   2450.04089395 </i>
    <i name="hartreedc">  -2944.32360199 </i>
    <i name="XCdc">     57.14334566 </i>
    <i name="pawpsdc">    268.85489819 </i>
    <i name="pawaedc">   -273.96654861 </i>
    <i name="eentropy">     -0.00000002 </i>
    <i name="bandstr">   -189.41504860 </i>
    <i name="atom">    588.62352690 </i>
    <i name="e_fr_energy">    -36.85919360 </i>
    <i name="e_wo_entrp">    -36.85919358 </i>
    <i name="e_0_energy">    -36.85919359 </i>
   </energy>
  </scstep>
  <scstep>
   <time name="diag">   77.95   78.61</time>
   <time name="diis">  317.22  320.33</time>
   <time name="orth">    3.08    3.09</time>
   <time name="total">  429.97  433.99</time>
   <energy>
    <i name="e_fr_energy">    -36.85919365 </i>
    <i name="e_wo_entrp">    -36.85919364 </i>
    <i name="e_0_energy">    -36.85919365 </i>
   </energy>
  </scstep>
  <scstep>
   <time name="diag">   78.09   78.59</time>
   <time name="diis">  319.28  322.72</time>
   <time name="orth">    3.07    3.07</time>
   <time name="total">  432.26  436.87</time>
   <energy>
    <i name="e_fr_energy">    -36.85919363 </i>
    <i name="e_wo_entrp">    -36.85919362 </i>
    <i name="e_0_energy">    -36.85919362 </i>
   </energy>
  </scstep>
  <scstep>
   <time name="diag">   77.84   78.64</time>
   <time name="diis">  329.76  330.31</time>
   <time name="orth">    3.07    3.07</time>
   <time name="total">  442.69  444.18</time>
   <energy>
    <i name="e_fr_energy">    -36.85919363 </i>
    <i name="e_wo_entrp">    -36.85919361 </i>
    <i name="e_0_energy">    -36.85919362 </i>
   </energy>
  </scstep>
  <scstep>
   <time name="diag">   78.17   78.57</time>
   <time name="diis">  286.82  289.34</time>
   <time name="orth">    3.10    3.11</time>
   <time name="total">  400.14  403.29</time>
   <energy>
    <i name="e_fr_energy">    -36.85919363 </i>
    <i name="e_wo_entrp">    -36.85919361 </i>
    <i name="e_0_energy">    -36.85919362 </i>
   </energy>
  </scstep>
  <scstep>
   <time name="diag">   78.30   78.56</time>
   <time name="diis">  216.60  216.89</time>
   <time name="orth">    3.07    3.09</time>
   <time name="total">  330.26  331.05</time>
   <energy>
    <i name="e_fr_energy">    -36.85919363 </i>
    <i name="e_wo_entrp">    -36.85919361 </i>
    <i name="e_0_energy">    -36.85919362 </i>
   </energy>
  </scstep>
  <scstep>
   <time name="diag">   78.15   78.55</time>
   <time name="diis">  212.79  214.06</time>
   <time name="orth">    3.08    3.10</time>
   <time name="total">  326.23  328.32</time>
   <energy>
    <i name="e_fr_energy">    -36.85919363 </i>
    <i name="e_wo_entrp">    -36.85919361 </i>
    <i name="e_0_energy">    -36.85919362 </i>
   </energy>
  </scstep>
  <scstep>
   <time name="diag">   77.89   78.63</time>
   <time name="diis">  202.94  204.19</time>
   <time name="orth">    3.07    3.07</time>
   <time name="total">  315.87  318.63</time>
   <energy>
    <i name="e_fr_energy">    -36.85919363 </i>
    <i name="e_wo_entrp">    -36.85919361 </i>
    <i name="e_0_energy">    -36.85919362 </i>
   </energy>
  </scstep>
  <scstep>
   <time name="diag">   77.64   78.69</time>
   <time name="diis">  197.21  197.71</time>
   <time name="orth">    3.06    3.09</time>
   <time name="total">  309.84  312.18</time>
   <energy>
    <i name="e_fr_energy">    -36.85919363 </i>
    <i name="e_wo_entrp">    -36.85919361 </i>
    <i name="e_0_energy">    -36.85919362 </i>
   </energy>
  </scstep>
  <scstep>
   <time name="diag">   78.22   78.57</time>
   <time name="diis">  189.90  190.20</time>
   <time name="orth">    3.09    3.09</time>
   <time name="total">  273.65  274.41</time>
   <energy>
    <i name="alphaZ">      6.18334092 </i>
    <i name="ewald">   2450.04089395 </i>
    <i name="hartreedc">  -2944.32435560 </i>
    <i name="XCdc">     57.14337622 </i>
    <i name="pawpsdc">    268.85791562 </i>
    <i name="pawaedc">   -273.96957953 </i>
    <i name="eentropy">     -0.00000002 </i>
    <i name="bandstr">   -189.41431210 </i>
    <i name="atom">    588.62352690 </i>
    <i name="e_fr_energy">    -36.85919363 </i>
    <i name="e_wo_entrp">    -36.85919361 </i>
    <i name="e_0_energy">    -36.85919362 </i>
   </energy>
  </scstep>
  <structure>
   <crystal>
    <varray name="basis" >
     <v>       4.37945591       0.00000000       0.00000000 </v>
     <v>       0.00000000       2.45723943       0.00000000 </v>
     <v>       0.00000000       0.00000000      19.59210280 </v>
    </varray>
    <i name="volume">    210.83790140 </i>
    <varray name="rec_basis" >
     <v>       0.22833887       0.00000000       0.00000000 </v>
     <v>       0.00000000       0.40696075       0.00000000 </v>
     <v>       0.00000000       0.00000000       0.05104097 </v>
    </varray>
   </crystal>
   <varray name="positions" >
    <v>       0.99947760       0.00000000       0.00000000 </v>
    <v>       0.16718907       0.50000000      -0.00000000 </v>
    <v>       0.49947760       0.50000000       0.00000000 </v>
    <v>       0.66718907      -0.00000000      -0.00000000 </v>
   </varray>
  </structure>
  <varray name="forces" >
   <v>      -0.00634407       0.00000000      -0.00000000 </v>
   <v>       0.00634407      -0.00000000       0.00000000 </v>
   <v>      -0.00634407      -0.00000000      -0.00000000 </v>
   <v>       0.00634407       0.00000000       0.00000000 </v>
  </varray>
  <varray name="stress" >
   <v>     -40.91287600       0.00000000       0.00000000 </v>
   <v>       0.00000000       0.00962961       0.00000000 </v>
   <v>       0.00000000       0.00000000      -0.01016967 </v>
  </varray>
  <energy>
   <i name="e_fr_energy">    -36.85919363 </i>
   <i name="e_wo_entrp">    -36.85919362 </i>
   <i name="e_0_energy">     -0.00000002 </i>
  </energy>
  <time name="totalsc"> 3703.53 3727.74</time>
 </calculation>
 <calculation>
  <scstep>
   <time name="dav">  312.56  313.66</time>
   <time name="total">  344.84  346.02</time>
   <energy>
    <i name="alphaZ">      6.18334092 </i>
    <i name="ewald">   2450.03950598 </i>
    <i name="hartreedc">  -2944.32374833 </i>
    <i name="XCdc">     57.14333668 </i>
    <i name="pawpsdc">    268.85791631 </i>
    <i name="pawaedc">   -273.96958024 </i>
    <i name="eentropy">     -0.00000002 </i>
    <i name="bandstr">   -189.41349266 </i>
    <i name="atom">    588.62352690 </i>
    <i name="e_fr_energy">    -36.85919445 </i>
    <i name="e_wo_entrp">    -36.85919443 </i>
    <i name="e_0_energy">    -36.85919444 </i>
   </energy>
  </scstep>
  <scstep>
   <time name="diag">   78.46   78.59</time>
   <time name="diis">  317.79  320.43</time>
   <time name="orth">    3.08    3.09</time>
   <time name="total">  431.34  434.34</time>
   <energy>
    <i name="e_fr_energy">    -36.85919447 </i>
    <i name="e_wo_entrp">    -36.85919445 </i>
    <i name="e_0_energy">    -36.85919446 </i>
   </energy>
  </scstep>
  <scstep>
   <time name="diag">   78.15   78.60</time>
   <time name="diis">  320.63  322.30</time>
   <time name="orth">    3.08    3.09</time>
   <time name="total">  434.07  436.49</time>
   <energy>
    <i name="e_fr_energy">    -36.85919444 </i>
    <i name="e_wo_entrp">    -36.85919442 </i>
    <i name="e_0_energy">    -36.85919443 </i>
   </energy>
  </scstep>
  <scstep>
   <time name="diag">   78.41   78.61</time>
   <time name="diis">  329.42  330.05</time>
   <time name="orth">    3.07    3.09</time>
   <time name="total">  443.00  443.89</time>
   <energy>
    <i name="e_fr_energy">    -36.85919444 </i>
    <i name="e_wo_entrp">    -36.85919442 </i>
    <i name="e_0_energy">    -36.85919443 </i>
   </energy>
  </scstep>
  <scstep>
   <time name="diag">   78.47   78.59</time>
   <time name="diis">  263.39  263.99</time>
   <time name="orth">    3.07    3.07</time>
   <time name="total">  376.83  377.87</time>
   <energy>
    <i name="e_fr_energy">    -36.85919444 </i>
    <i name="e_wo_entrp">    -36.85919442 </i>
    <i name="e_0_energy">    -36.85919443 </i>
   </energy>
  </scstep>
  <scstep>
   <time name="diag">   78.07   78.62</time>
   <time name="diis">  212.53  214.36</time>
   <time name="orth">    3.07    3.09</time>
   <time name="total">  325.72  328.44</time>
   <energy>
    <i name="e_fr_energy">    -36.85919444 </i>
    <i name="e_wo_entrp">    -36.85919442 </i>
    <i name="e_0_energy">    -36.85919443 </i>
   </energy>
  </scstep>
  <scstep>
   <time name="diag">   78.47   78.62</time>
   <time name="diis">  213.85  214.12</time>
   <time name="orth">    3.08    3.09</time>
   <time name="total">  327.69  328.14</time>
   <energy>
    <i name="e_fr_energy">    -36.85919444 </i>
    <i name="e_wo_entrp">    -36.85919442 </i>
    <i name="e_0_energy">    -36.85919443 </i>
   </energy>
  </scstep>
  <scstep>
   <time name="diag">   78.37   78.61</time>
   <time name="diis">  200.25  200.84</time>
   <time name="orth">    3.10    3.11</time>
   <time name="total">  284.18  285.07</time>
   <energy>
    <i name="alphaZ">      6.18334092 </i>
    <i name="ewald">   2450.03950598 </i>
    <i name="hartreedc">  -2944.32319829 </i>
    <i name="XCdc">     57.14331342 </i>
    <i name="pawpsdc">    268.85555261 </i>
    <i name="pawaedc">   -273.96720617 </i>
    <i name="eentropy">     -0.00000002 </i>
    <i name="bandstr">   -189.41402979 </i>
    <i name="atom">    588.62352690 </i>
    <i name="e_fr_energy">    -36.85919444 </i>
    <i name="e_wo_entrp">    -36.85919442 </i>
    <i name="e_0_energy">    -36.85919443 </i>
   </energy>
  </scstep>
  <structure>
   <crystal>
    <varray name="basis" >
     <v>       4.37945591       0.00000000       0.00000000 </v>
     <v>       0.00000000       2.45723943       0.00000000 </v>
     <v>       0.00000000       0.00000000      19.59210280 </v>
    </varray>
    <i name="volume">    210.83790140 </i>
    <varray name="rec_basis" >
     <v>       0.22833887       0.00000000       0.00000000 </v>
     <v>       0.00000000       0.40696075       0.00000000 </v>
     <v>       0.00000000       0.00000000       0.05104097 </v>
    </varray>
   </crystal>
   <varray name="positions" >
    <v>       0.99946272       0.00000000       0.00000000 </v>
    <v>       0.16720395       0.50000000      -0.00000000 </v>
    <v>       0.49946272       0.50000000       0.00000000 </v>
    <v>       0.66720395      -0.00000000      -0.00000000 </v>
   </varray>
  </structure>
  <varray name="forces" >
   <v>      -0.00000282       0.00000000       0.00000000 </v>
   <v>       0.00000282      -0.00000000       0.00000000 </v>
   <v>      -0.00000282       0.00000000       0.00000000 </v>
   <v>       0.00000282       0.00000000       0.00000000 </v>
  </varray>
  <varray name="stress" >
   <v>     -40.90262237       0.00000000       0.00000000 </v>
   <v>       0.00000000      -0.01132733       0.00000000 </v>
   <v>       0.00000000       0.00000000      -0.01024399 </v>
  </varray>
  <energy>
   <i name="e_fr_energy">    -36.85919444 </i>
   <i name="e_wo_entrp">    -36.85919443 </i>
   <i name="e_0_energy">     -0.00000002 </i>
  </energy>
  <time name="totalsc"> 3070.05 3083.09</time>
 </calculation>
 <calculation>
  <scstep>
   <time name="dav">  243.46  244.94</time>
   <time name="total">  275.38  277.18</time>
   <energy>
    <i name="alphaZ">      6.18334092 </i>
    <i name="ewald">   2450.03950536 </i>
    <i name="hartreedc">  -2944.32318495 </i>
    <i name="XCdc">     57.14331340 </i>
    <i name="pawpsdc">    268.85555725 </i>
    <i name="pawaedc">   -273.96721089 </i>
    <i name="eentropy">     -0.00000002 </i>
    <i name="bandstr">   -189.41404243 </i>
    <i name="atom">    588.62352690 </i>
    <i name="e_fr_energy">    -36.85919444 </i>
    <i name="e_wo_entrp">    -36.85919442 </i>
    <i name="e_0_energy">    -36.85919443 </i>
   </energy>
  </scstep>
  <scstep>
   <time name="diag">   78.10   78.60</time>
   <time name="diis">  160.59  162.12</time>
   <time name="orth">    3.09    3.10</time>
   <time name="total">  273.65  275.91</time>
   <energy>
    <i name="e_fr_energy">    -36.85919444 </i>
    <i name="e_wo_entrp">    -36.85919442 </i>
    <i name="e_0_energy">    -36.85919443 </i>
   </energy>
  </scstep>
  <scstep>
   <time name="diag">   78.19   78.57</time>
   <time name="diis">  161.24  161.36</time>
   <time name="orth">    3.09    3.10</time>
   <time name="total">  274.51  275.29</time>
   <energy>
    <i name="e_fr_energy">    -36.85919444 </i>
    <i name="e_wo_entrp">    -36.85919442 </i>
    <i name="e_0_energy">    -36.85919443 </i>
   </energy>
  </scstep>
  <scstep>
   <time name="diag">   78.13   78.60</time>
   <time name="diis">  158.41  159.74</time>
   <time name="orth">    3.09    3.10</time>
   <time name="total">  271.40  273.44</time>
   <energy>
    <i name="e_fr_energy">    -36.85919444 </i>
    <i name="e_wo_entrp">    -36.85919442 </i>
    <i name="e_0_energy">    -36.85919443 </i>
   </energy>
  </scstep>
  <scstep>
   <time name="diag">   78.48   78.59</time>
   <time name="diis">  159.64  159.92</time>
   <time name="orth">    3.08    3.08</time>
   <time name="total">  273.16  273.68</time>
   <energy>
    <i name="e_fr_energy">    -36.85919444 </i>
    <i name="e_wo_entrp">    -36.85919442 </i>
    <i name="e_0_energy">    -36.85919443 </i>
   </energy>
  </scstep>
  <scstep>
   <time name="diag">   78.18   78.55</time>
   <time name="diis">  156.09  156.82</time>
   <time name="orth">    3.08    3.08</time>
   <time name="total">  239.79  241.08</time>
   <energy>
    <i name="alphaZ">      6.18334092 </i>
    <i name="ewald">   2450.03950536 </i>
    <i name="hartreedc">  -2944.32316878 </i>
    <i name="XCdc">     57.14331330 </i>
    <i name="pawpsdc">    268.85555774 </i>
    <i name="pawaedc">   -273.96721137 </i>
    <i name="eentropy">     -0.00000002 </i>
    <i name="bandstr">   -189.41405850 </i>
    <i name="atom">    588.62352690 </i>
    <i name="e_fr_energy">    -36.85919444 </i>
    <i name="e_wo_entrp">    -36.85919442 </i>
    <i name="e_0_energy">    -36.85919443 </i>
   </energy>
  </scstep>
  <structure>
   <crystal>
    <varray name="basis" >
     <v>       4.37945591       0.00000000       0.00000000 </v>
     <v>       0.00000000       2.45723943       0.00000000 </v>
     <v>       0.00000000       0.00000000      19.59210280 </v>
    </varray>
    <i name="volume">    210.83790140 </i>
    <varray name="rec_basis" >
     <v>       0.22833887       0.00000000       0.00000000 </v>
     <v>       0.00000000       0.40696075       0.00000000 </v>
     <v>       0.00000000       0.00000000       0.05104097 </v>
    </varray>
   </crystal>
   <varray name="positions" >
    <v>       0.99946271       0.00000000       0.00000000 </v>
    <v>       0.16720396       0.50000000      -0.00000000 </v>
    <v>       0.49946271       0.50000000       0.00000000 </v>
    <v>       0.66720396       0.00000000      -0.00000000 </v>
   </varray>
  </structure>
  <varray name="forces" >
   <v>       0.00000221      -0.00000000      -0.00000000 </v>
   <v>      -0.00000221      -0.00000000       0.00000000 </v>
   <v>       0.00000221       0.00000000      -0.00000000 </v>
   <v>      -0.00000221      -0.00000000       0.00000000 </v>
  </varray>
  <varray name="stress" >
   <v>     -40.90262902       0.00000000       0.00000000 </v>
   <v>       0.00000000      -0.01133721       0.00000000 </v>
   <v>       0.00000000       0.00000000      -0.01021671 </v>
  </varray>
  <energy>
   <i name="e_fr_energy">    -36.85919444 </i>
   <i name="e_wo_entrp">    -36.85919443 </i>
   <i name="e_0_energy">     -0.00000002 </i>
  </energy>
  <time name="totalsc"> 1710.58 1719.35</time>
 </calculation>
 <calculation>
  <scstep>
   <time name="dav">  239.58  240.17</time>
   <time name="total">  271.79  272.52</time>
   <energy>
    <i name="alphaZ">      6.18334092 </i>
    <i name="ewald">   2450.03950563 </i>
    <i name="hartreedc">  -2944.32316861 </i>
    <i name="XCdc">     57.14331330 </i>
    <i name="pawpsdc">    268.85555774 </i>
    <i name="pawaedc">   -273.96721137 </i>
    <i name="eentropy">     -0.00000002 </i>
    <i name="bandstr">   -189.41405894 </i>
    <i name="atom">    588.62352690 </i>
    <i name="e_fr_energy">    -36.85919444 </i>
    <i name="e_wo_entrp">    -36.85919442 </i>
    <i name="e_0_energy">    -36.85919443 </i>
   </energy>
  </scstep>
  <scstep>
   <time name="diag">   78.49   78.55</time>
   <time name="diis">  138.40  139.04</time>
   <time name="orth">    3.07    3.07</time>
   <time name="total">  252.12  252.97</time>
   <energy>
    <i name="e_fr_energy">    -36.85919444 </i>
    <i name="e_wo_entrp">    -36.85919442 </i>
    <i name="e_0_energy">    -36.85919443 </i>
   </energy>
  </scstep>
  <scstep>
   <time name="diag">   78.27   78.66</time>
   <time name="diis">  141.82  142.20</time>
   <time name="orth">    3.07    3.07</time>
   <time name="total">  255.52  256.33</time>
   <energy>
    <i name="e_fr_energy">    -36.85919444 </i>
    <i name="e_wo_entrp">    -36.85919442 </i>
    <i name="e_0_energy">    -36.85919443 </i>
   </energy>
  </scstep>
  <scstep>
   <time name="diag">   78.59   78.60</time>
   <time name="diis">  134.29  134.31</time>
   <time name="orth">    3.09    3.09</time>
   <time name="total">  248.15  248.20</time>
   <energy>
    <i name="e_fr_energy">    -36.85919444 </i>
    <i name="e_wo_entrp">    -36.85919442 </i>
    <i name="e_0_energy">    -36.85919443 </i>
   </energy>
  </scstep>
  <scstep>
   <time name="diag">   78.57   78.60</time>
   <time name="diis">  135.37  135.43</time>
   <time name="orth">    3.09    3.09</time>
   <time name="total">  219.52  219.65</time>
   <energy>
    <i name="alphaZ">      6.18334092 </i>
    <i name="ewald">   2450.03950563 </i>
    <i name="hartreedc">  -2944.32317089 </i>
    <i name="XCdc">     57.14331339 </i>
    <i name="pawpsdc">    268.85555908 </i>
    <i name="pawaedc">   -273.96721272 </i>
    <i name="eentropy">     -0.00000002 </i>
    <i name="bandstr">   -189.41405674 </i>
    <i name="atom">    588.62352690 </i>
    <i name="e_fr_energy">    -36.85919444 </i>
    <i name="e_wo_entrp">    -36.85919442 </i>
    <i name="e_0_energy">    -36.85919443 </i>
   </energy>
  </scstep>
  <structure>
   <crystal>
    <varray name="basis" >
     <v>       4.37945591       0.00000000       0.00000000 </v>
     <v>       0.00000000       2.45723943       0.00000000 </v>
     <v>       0.00000000       0.00000000      19.59210280 </v>
    </varray>
    <i name="volume">    210.83790140 </i>
    <varray name="rec_basis" >
     <v>       0.22833887       0.00000000       0.00000000 </v>
     <v>       0.00000000       0.40696075       0.00000000 </v>
     <v>       0.00000000       0.00000000       0.05104097 </v>
    </varray>
   </crystal>
   <varray name="positions" >
    <v>       0.99946271       0.00000000       0.00000000 </v>
    <v>       0.16720395       0.50000000      -0.00000000 </v>
    <v>       0.49946271       0.50000000       0.00000000 </v>
    <v>       0.66720395       0.00000000      -0.00000000 </v>
   </varray>
  </structure>
  <varray name="forces" >
   <v>       0.00000178       0.00000000       0.00000000 </v>
   <v>      -0.00000178      -0.00000000       0.00000000 </v>
   <v>       0.00000178      -0.00000000       0.00000000 </v>
   <v>      -0.00000178       0.00000000       0.00000000 </v>
  </varray>
  <varray name="stress" >
   <v>     -40.90261374       0.00000000       0.00000000 </v>
   <v>       0.00000000      -0.01134727       0.00000000 </v>
   <v>       0.00000000       0.00000000      -0.01020522 </v>
  </varray>
  <energy>
   <i name="e_fr_energy">    -36.85919444 </i>
   <i name="e_wo_entrp">    -36.85919443 </i>
   <i name="e_0_energy">     -0.00000002 </i>
  </energy>
  <time name="totalsc"> 1348.91 1351.51</time>
 </calculation>
 <calculation>
  <scstep>
   <time name="dav">  255.16  255.25</time>
   <time name="total">  287.66  287.75</time>
   <energy>
    <i name="alphaZ">      6.18334092 </i>
    <i name="ewald">   2450.03950677 </i>
    <i name="hartreedc">  -2944.32317151 </i>
    <i name="XCdc">     57.14331342 </i>
    <i name="pawpsdc">    268.85555908 </i>
    <i name="pawaedc">   -273.96721272 </i>
    <i name="eentropy">     -0.00000002 </i>
    <i name="bandstr">   -189.41405729 </i>
    <i name="atom">    588.62352690 </i>
    <i name="e_fr_energy">    -36.85919444 </i>
    <i name="e_wo_entrp">    -36.85919442 </i>
    <i name="e_0_energy">    -36.85919443 </i>
   </energy>
  </scstep>
  <scstep>
   <time name="diag">   78.56   78.57</time>
   <time name="diis">  120.60  120.64</time>
   <time name="orth">    3.10    3.10</time>
   <time name="total">  234.50  234.56</time>
   <energy>
    <i name="e_fr_energy">    -36.85919444 </i>
    <i name="e_wo_entrp">    -36.85919442 </i>
    <i name="e_0_energy">    -36.85919443 </i>
   </energy>
  </scstep>
  <scstep>
   <time name="diag">   78.58   78.59</time>
   <time name="diis">  121.64  121.66</time>
   <time name="orth">    3.10    3.10</time>
   <time name="total">  235.49  235.59</time>
   <energy>
    <i name="e_fr_energy">    -36.85919444 </i>
    <i name="e_wo_entrp">    -36.85919442 </i>
    <i name="e_0_energy">    -36.85919443 </i>
   </energy>
  </scstep>
  <scstep>
   <time name="diag">   78.59   78.60</time>
   <time name="diis">  111.68  111.71</time>
   <time name="orth">    3.09    3.09</time>
   <time name="total">  225.74  225.78</time>
   <energy>
    <i name="e_fr_energy">    -36.85919444 </i>
    <i name="e_wo_entrp">    -36.85919442 </i>
    <i name="e_0_energy">    -36.85919443 </i>
   </energy>
  </scstep>
  <scstep>
   <time name="diag">   78.63   78.67</time>
   <time name="diis">  115.19  115.21</time>
   <time name="orth">    3.09    3.09</time>
   <time name="total">  199.45  199.51</time>
   <energy>
    <i name="alphaZ">      6.18334092 </i>
    <i name="ewald">   2450.03950677 </i>
    <i name="hartreedc">  -2944.32317200 </i>
    <i name="XCdc">     57.14331344 </i>
    <i name="pawpsdc">    268.85556025 </i>
    <i name="pawaedc">   -273.96721391 </i>
    <i name="eentropy">     -0.00000002 </i>
    <i name="bandstr">   -189.41405680 </i>
    <i name="atom">    588.62352690 </i>
    <i name="e_fr_energy">    -36.85919444 </i>
    <i name="e_wo_entrp">    -36.85919442 </i>
    <i name="e_0_energy">    -36.85919443 </i>
   </energy>
  </scstep>
  <structure>
   <crystal>
    <varray name="basis" >
     <v>       4.37945591       0.00000000       0.00000000 </v>
     <v>       0.00000000       2.45723943       0.00000000 </v>
     <v>       0.00000000       0.00000000      19.59210280 </v>
    </varray>
    <i name="volume">    210.83790140 </i>
    <varray name="rec_basis" >
     <v>       0.22833887       0.00000000       0.00000000 </v>
     <v>       0.00000000       0.40696075       0.00000000 </v>
     <v>       0.00000000       0.00000000       0.05104097 </v>
    </varray>
   </crystal>
   <varray name="positions" >
    <v>       0.99946273       0.00000000       0.00000000 </v>
    <v>       0.16720394       0.50000000      -0.00000000 </v>
    <v>       0.49946273       0.50000000       0.00000000 </v>
    <v>       0.66720394       0.00000000      -0.00000000 </v>
   </varray>
  </structure>
  <varray name="forces" >
   <v>      -0.00000370      -0.00000000       0.00000000 </v>
   <v>       0.00000370      -0.00000000       0.00000000 </v>
   <v>      -0.00000370       0.00000000       0.00000000 </v>
   <v>       0.00000370      -0.00000000       0.00000000 </v>
  </varray>
  <varray name="stress" >
   <v>     -40.90261857       0.00000000       0.00000000 </v>
   <v>       0.00000000      -0.01132882       0.00000000 </v>
   <v>       0.00000000       0.00000000      -0.01020766 </v>
  </varray>
  <energy>
   <i name="e_fr_energy">    -36.85919444 </i>
   <i name="e_wo_entrp">    -36.85919443 </i>
   <i name="e_0_energy">     -0.00000002 </i>
  </energy>
  <time name="totalsc"> 1286.42 1286.95</time>
 </calculation>
 <calculation>
  <scstep>
   <time name="dav">  225.23  225.32</time>
   <time name="total">  257.70  257.80</time>
   <energy>
    <i name="alphaZ">      6.18334092 </i>
    <i name="ewald">   2450.03950600 </i>
    <i name="hartreedc">  -2944.32317169 </i>
    <i name="XCdc">     57.14331342 </i>
    <i name="pawpsdc">    268.85556025 </i>
    <i name="pawaedc">   -273.96721391 </i>
    <i name="eentropy">     -0.00000002 </i>
    <i name="bandstr">   -189.41405633 </i>
    <i name="atom">    588.62352690 </i>
    <i name="e_fr_energy">    -36.85919444 </i>
    <i name="e_wo_entrp">    -36.85919442 </i>
    <i name="e_0_energy">    -36.85919443 </i>
   </energy>
  </scstep>
  <scstep>
   <time name="diag">   78.57   78.60</time>
   <time name="diis">  107.18  107.20</time>
   <time name="orth">    3.09    3.09</time>
   <time name="total">  221.04  221.09</time>
   <energy>
    <i name="e_fr_energy">    -36.85919444 </i>
    <i name="e_wo_entrp">    -36.85919442 </i>
    <i name="e_0_energy">    -36.85919443 </i>
   </energy>
  </scstep>
  <scstep>
   <time name="diag">   78.42   78.55</time>
   <time name="diis">  108.69  108.71</time>
   <time name="orth">    3.07    3.07</time>
   <time name="total">  222.09  223.83</time>
   <energy>
    <i name="e_fr_energy">    -36.85919444 </i>
    <i name="e_wo_entrp">    -36.85919442 </i>
    <i name="e_0_energy">    -36.85919443 </i>
   </energy>
  </scstep>
  <scstep>
   <time name="diag">   78.52   78.54</time>
   <time name="diis">  111.05  111.07</time>
   <time name="orth">    3.07    3.07</time>
   <time name="total">  224.93  225.01</time>
   <energy>
    <i name="e_fr_energy">    -36.85919444 </i>
    <i name="e_wo_entrp">    -36.85919442 </i>
    <i name="e_0_energy">    -36.85919443 </i>
   </energy>
  </scstep>
  <scstep>
   <time name="diag">   78.22   78.54</time>
   <time name="diis">  105.11  105.63</time>
   <time name="orth">    3.07    3.07</time>
   <time name="total">  188.91  189.77</time>
   <energy>
    <i name="alphaZ">      6.18334092 </i>
    <i name="ewald">   2450.03950600 </i>
    <i name="hartreedc">  -2944.32317157 </i>
    <i name="XCdc">     57.14331340 </i>
    <i name="pawpsdc">    268.85555984 </i>
    <i name="pawaedc">   -273.96721348 </i>
    <i name="eentropy">     -0.00000002 </i>
    <i name="bandstr">   -189.41405644 </i>
    <i name="atom">    588.62352690 </i>
    <i name="e_fr_energy">    -36.85919444 </i>
    <i name="e_wo_entrp">    -36.85919442 </i>
    <i name="e_0_energy">    -36.85919443 </i>
   </energy>
  </scstep>
  <structure>
   <crystal>
    <varray name="basis" >
     <v>       4.37945591       0.00000000       0.00000000 </v>
     <v>       0.00000000       2.45723943       0.00000000 </v>
     <v>       0.00000000       0.00000000      19.59210280 </v>
    </varray>
    <i name="volume">    210.83790140 </i>
    <varray name="rec_basis" >
     <v>       0.22833887       0.00000000       0.00000000 </v>
     <v>       0.00000000       0.40696075       0.00000000 </v>
     <v>       0.00000000       0.00000000       0.05104097 </v>
    </varray>
   </crystal>
   <varray name="positions" >
    <v>       0.99946272       0.00000000       0.00000000 </v>
    <v>       0.16720395       0.50000000      -0.00000000 </v>
    <v>       0.49946272       0.50000000       0.00000000 </v>
    <v>       0.66720395       0.00000000      -0.00000000 </v>
   </varray>
  </structure>
  <varray name="forces" >
   <v>       0.00000100       0.00000000       0.00000000 </v>
   <v>      -0.00000100       0.00000000      -0.00000000 </v>
   <v>       0.00000100       0.00000000       0.00000000 </v>
   <v>      -0.00000100      -0.00000000      -0.00000000 </v>
  </varray>
  <varray name="stress" >
   <v>     -40.90261746       0.00000000       0.00000000 </v>
   <v>       0.00000000      -0.01134386       0.00000000 </v>
   <v>       0.00000000       0.00000000      -0.01020564 </v>
  </varray>
  <energy>
   <i name="e_fr_energy">    -36.85919444 </i>
   <i name="e_wo_entrp">    -36.85919443 </i>
   <i name="e_0_energy">     -0.00000002 </i>
  </energy>
  <time name="totalsc"> 1211.26 1214.15</time>
  <eigenvalues>
   <array>
    <dimension dim="1">band</dimension>
    <dimension dim="2">kpoint</dimension>
    <dimension dim="3">spin</dimension>
    <field>eigene</field>
    <field>occ</field>
    <set>
     <set comment="spin 1">
      <set comment="kpoint 1">
       <r>  -22.0816    1.0000 </r>
       <r>  -17.2562    1.0000 </r>
       <r>  -15.8334    1.0000 </r>
       <r>  -10.2261    1.0000 </r>
       <r>   -8.8067    1.0000 </r>
       <r>   -6.0054    1.0000 </r>
       <r>   -5.7275    1.0000 </r>
       <r>   -5.3341    1.0000 </r>
       <r>   -1.1854    0.0000 </r>
       <r>    0.5447    0.0000 </r>
       <r>    1.3428    0.0000 </r>
       <r>    1.7361    0.0000 </r>
      </set>
      <set comment="kpoint 2">
       <r>  -22.0718    1.0000 </r>
       <r>  -17.3746    1.0000 </r>
       <r>  -15.7000    1.0000 </r>
       <r>  -10.2145    1.0000 </r>
       <r>   -8.7973    1.0000 </r>
       <r>   -6.0496    1.0000 </r>
       <r>   -5.7476    1.0000 </r>
       <r>   -5.3928    1.0000 </r>
       <r>   -1.1110    0.0000 </r>
       <r>    0.5579    0.0000 </r>
       <r>    1.3562    0.0000 </r>
       <r>    1.7497    0.0000 </r>
      </set>
      <set comment="kpoint 3">
       <r>  -22.0426    1.0000 </r>
       <r>  -17.6484    1.0000 </r>
       <r>  -15.3814    1.0000 </r>
       <r>  -10.1798    1.0000 </r>
       <r>   -8.7690    1.0000 </r>
       <r>   -6.1804    1.0000 </r>
       <r>   -5.8068    1.0000 </r>
       <r>   -5.5572    1.0000 </r>
       <r>   -0.8996    0.0000 </r>
       <r>    0.5975    0.0000 </r>
       <r>    1.3964    0.0000 </r>
       <r>    1.7904    0.0000 </r>
      </set>
      <set comment="kpoint 4">
       <r>  -21.9938    1.0000 </r>
       <r>  -17.9790    1.0000 </r>
       <r>  -14.9762    1.0000 </r>
       <r>  -10.1220    1.0000 </r>
       <r>   -8.7220    1.0000 </r>
       <r>   -6.3916    1.0000 </r>
       <r>   -5.9021    1.0000 </r>
       <r>   -5.8000    1.0000 </r>
       <r>   -0.5790    0.0000 </r>
       <r>    0.6635    0.0000 </r>
       <r>    1.4633    0.0000 </r>
       <r>    1.8582    0.0000 </r>
      </set>
      <set comment="kpoint 5">
       <r>  -21.9256    1.0000 </r>
       <r>  -18.3240    1.0000 </r>
       <r>  -14.5274    1.0000 </r>
       <r>  -10.0412    1.0000 </r>
       <r>   -8.6565    1.0000 </r>
       <r>   -6.6748    1.0000 </r>
       <r>   -6.0928    1.0000 </r>
       <r>   -6.0291    1.0000 </r>
       <r>   -0.1784    0.0000 </r>
       <r>    0.7560    0.0000 </r>
       <r>    1.5570    0.0000 </r>
       <r>    1.9532    0.0000 </r>
      </set>
      <set comment="kpoint 6">
       <r>  -21.8379    1.0000 </r>
       <r>  -18.6671    1.0000 </r>
       <r>  -14.0518    1.0000 </r>
       <r>   -9.9375    1.0000 </r>
       <r>   -8.5730    1.0000 </r>
       <r>   -7.0197    1.0000 </r>
       <r>   -6.4131    1.0000 </r>
       <r>   -6.1825    1.0000 </r>
       <r>    0.2786    0.0000 </r>
       <r>    0.8750    0.0000 </r>
       <r>    1.6774    0.0000 </r>
       <r>    2.0753    0.0000 </r>
      </set>
      <set comment="kpoint 7">
       <r>  -21.7309    1.0000 </r>
       <r>  -19.0011    1.0000 </r>
       <r>  -13.5573    1.0000 </r>
       <r>   -9.8112    1.0000 </r>
       <r>   -8.4720    1.0000 </r>
       <r>   -7.4159    1.0000 </r>
       <r>   -6.7457    1.0000 </r>
       <r>   -6.3563    1.0000 </r>
       <r>    0.7751    0.0000 </r>
       <r>    1.0205    0.0000 </r>
       <r>    1.8244    0.0000 </r>
       <r>    2.2245    0.0000 </r>
[...]
       <r>   -9.3551    1.0000 </r>
       <r>   -5.5144    1.0000 </r>
       <r>   -5.5144    1.0000 </r>
       <r>   -0.4923    0.0000 </r>
       <r>   -0.4923    0.0000 </r>
       <r>    4.1444    0.0000 </r>
       <r>    4.1444    0.0000 </r>
      </set>
      <set comment="kpoint 209">
       <r>  -18.6241    1.0000 </r>
       <r>  -16.8079    1.0000 </r>
       <r>  -14.2143    1.0000 </r>
       <r>  -12.5478    1.0000 </r>
       <r>  -12.2996    1.0000 </r>
       <r>  -10.7868    1.0000 </r>
       <r>   -6.2769    1.0000 </r>
       <r>   -4.3999    1.0000 </r>
       <r>   -1.2026    0.0000 </r>
       <r>    0.9566    0.0000 </r>
       <r>    5.3143    0.0000 </r>
       <r>    6.0840    0.0000 </r>
      </set>
      <set comment="kpoint 210">
       <r>  -18.6149    1.0000 </r>
       <r>  -16.8007    1.0000 </r>
       <r>  -14.2813    1.0000 </r>
       <r>  -12.6108    1.0000 </r>
       <r>  -12.2249    1.0000 </r>
       <r>  -10.7263    1.0000 </r>
       <r>   -6.2686    1.0000 </r>
       <r>   -4.4039    1.0000 </r>
       <r>   -1.2089    0.0000 </r>
       <r>    0.9339    0.0000 </r>
       <r>    5.3272    0.0000 </r>
       <r>    6.0992    0.0000 </r>
      </set>
      <set comment="kpoint 211">
       <r>  -18.5873    1.0000 </r>
       <r>  -16.7796    1.0000 </r>
       <r>  -14.4559    1.0000 </r>
       <r>  -12.7773    1.0000 </r>
       <r>  -12.0273    1.0000 </r>
       <r>  -10.5679    1.0000 </r>
       <r>   -6.2438    1.0000 </r>
       <r>   -4.4163    1.0000 </r>
       <r>   -1.2266    0.0000 </r>
       <r>    0.8675    0.0000 </r>
       <r>    5.3657    0.0000 </r>
       <r>    6.1442    0.0000 </r>
      </set>
      <set comment="kpoint 212">
       <r>  -18.5413    1.0000 </r>
       <r>  -16.7460    1.0000 </r>
       <r>  -14.6899    1.0000 </r>
       <r>  -13.0061    1.0000 </r>
       <r>  -11.7548    1.0000 </r>
       <r>  -10.3549    1.0000 </r>
       <r>   -6.2027    1.0000 </r>
       <r>   -4.4385    1.0000 </r>
       <r>   -1.2513    0.0000 </r>
       <r>    0.7617    0.0000 </r>
       <r>    5.4291    0.0000 </r>
       <r>    6.2184    0.0000 </r>
      </set>
      <set comment="kpoint 213">
       <r>  -18.4771    1.0000 </r>
       <r>  -16.7027    1.0000 </r>
       <r>  -14.9463    1.0000 </r>
       <r>  -13.2660    1.0000 </r>
       <r>  -11.4438    1.0000 </r>
       <r>  -10.1214    1.0000 </r>
       <r>   -6.1458    1.0000 </r>
       <r>   -4.4723    1.0000 </r>
       <r>   -1.2768    0.0000 </r>
       <r>    0.6227    0.0000 </r>
       <r>    5.5107    0.0000 </r>
       <r>    5.8789    0.0000 </r>
      </set>
      <set comment="kpoint 214">
       <r>  -18.3949    1.0000 </r>
       <r>  -16.6559    1.0000 </r>
       <r>  -15.1999    1.0000 </r>
       <r>  -13.5389    1.0000 </r>
       <r>  -11.1164    1.0000 </r>
       <r>   -9.8902    1.0000 </r>
       <r>   -6.0738    1.0000 </r>
       <r>   -4.5199    1.0000 </r>
       <r>   -1.2959    0.0000 </r>
       <r>    0.4581    0.0000 </r>
       <r>    5.3582    0.0000 </r>
       <r>    5.6641    0.0000 </r>
      </set>
      <set comment="kpoint 215">
       <r>  -18.2950    1.0000 </r>
       <r>  -16.6175    1.0000 </r>
       <r>  -15.4281    1.0000 </r>
       <r>  -13.8143    1.0000 </r>
       <r>  -10.7872    1.0000 </r>
       <r>   -9.6769    1.0000 </r>
       <r>   -5.9875    1.0000 </r>
       <r>   -4.5830    1.0000 </r>
       <r>   -1.3014    0.0000 </r>
       <r>    0.2753    0.0000 </r>
       <r>    4.9420    0.0000 </r>
       <r>    5.7948    0.0000 </r>
      </set>
      <set comment="kpoint 216">
       <r>  -18.1777    1.0000 </r>
       <r>  -16.6112    1.0000 </r>
       <r>  -15.6016    1.0000 </r>
       <r>  -14.0857    1.0000 </r>
       <r>  -10.4673    1.0000 </r>
       <r>   -9.4941    1.0000 </r>
       <r>   -5.8881    1.0000 </r>
       <r>   -4.6625    1.0000 </r>
       <r>   -1.2873    0.0000 </r>
       <r>    0.0818    0.0000 </r>
       <r>    4.5809    0.0000 </r>
       <r>    5.5411    0.0000 </r>
      </set>
      <set comment="kpoint 217">
       <r>  -18.0436    1.0000 </r>
       <r>  -16.6677    1.0000 </r>
       <r>  -15.6858    1.0000 </r>
       <r>  -14.3489    1.0000 </r>
       <r>  -10.1662    1.0000 </r>
       <r>   -9.3520    1.0000 </r>
       <r>   -5.7770    1.0000 </r>
       <r>   -4.7583    1.0000 </r>
       <r>   -1.2490    0.0000 </r>
       <r>   -0.1159    0.0000 </r>
       <r>    4.2930    0.0000 </r>
       <r>    5.1007    0.0000 </r>
      </set>
      <set comment="kpoint 218">
       <r>  -17.8934    1.0000 </r>
       <r>  -16.7959    1.0000 </r>
       <r>  -15.6698    1.0000 </r>
       <r>  -14.6006    1.0000 </r>
       <r>   -9.8931    1.0000 </r>
       <r>   -9.2592    1.0000 </r>
       <r>   -5.6560    1.0000 </r>
       <r>   -4.8686    1.0000 </r>
       <r>   -1.1844    0.0000 </r>
       <r>   -0.3116    0.0000 </r>
       <r>    4.0870    0.0000 </r>
       <r>    4.7183    0.0000 </r>
      </set>
      <set comment="kpoint 219">
       <r>  -17.7281    1.0000 </r>
       <r>  -16.9706    1.0000 </r>
       <r>  -15.5772    1.0000 </r>
       <r>  -14.8382    1.0000 </r>
       <r>   -9.6568    1.0000 </r>
       <r>   -9.2221    1.0000 </r>
       <r>   -5.5272    1.0000 </r>
       <r>   -4.9907    1.0000 </r>
       <r>   -1.0931    0.0000 </r>
       <r>   -0.4999    0.0000 </r>
       <r>    3.9692    0.0000 </r>
       <r>    4.4032    0.0000 </r>
      </set>
      <set comment="kpoint 220">
       <r>  -17.5494    1.0000 </r>
       <r>  -17.1641    1.0000 </r>
       <r>  -15.4350    1.0000 </r>
       <r>  -15.0589    1.0000 </r>
       <r>   -9.4655    1.0000 </r>
       <r>   -9.2443    1.0000 </r>
       <r>   -5.3930    1.0000 </r>
       <r>   -5.1213    1.0000 </r>
       <r>   -0.9763    0.0000 </r>
       <r>   -0.6763    0.0000 </r>
       <r>    3.9431    0.0000 </r>
       <r>    4.1643    0.0000 </r>
      </set>
      <set comment="kpoint 221">
       <r>  -17.3599    1.0000 </r>
       <r>  -17.3599    1.0000 </r>
       <r>  -15.2594    1.0000 </r>
       <r>  -15.2594    1.0000 </r>
       <r>   -9.3262    1.0000 </r>
       <r>   -9.3262    1.0000 </r>
       <r>   -5.2567    1.0000 </r>
       <r>   -5.2567    1.0000 </r>
       <r>   -0.8363    0.0000 </r>
       <r>   -0.8363    0.0000 </r>
       <r>    4.0091    0.0000 </r>
       <r>    4.0091    0.0000 </r>
      </set>
      <set comment="kpoint 222">
       <r>  -18.1956    1.0000 </r>
       <r>  -17.2836    1.0000 </r>
       <r>  -13.8285    1.0000 </r>
       <r>  -12.9945    1.0000 </r>
       <r>  -11.9524    1.0000 </r>
       <r>  -11.1910    1.0000 </r>
       <r>   -5.8179    1.0000 </r>
       <r>   -4.8737    1.0000 </r>
       <r>   -0.6951    0.0000 </r>
       <r>    0.3867    0.0000 </r>
       <r>    5.9206    0.0000 </r>
       <r>    6.6454    0.0000 </r>
      </set>
      <set comment="kpoint 223">
       <r>  -18.1865    1.0000 </r>
       <r>  -17.2753    1.0000 </r>
       <r>  -13.8960    1.0000 </r>
       <r>  -13.0595    1.0000 </r>
       <r>  -11.8801    1.0000 </r>
       <r>  -11.1259    1.0000 </r>
       <r>   -5.8109    1.0000 </r>
       <r>   -4.8720    1.0000 </r>
       <r>   -0.7085    0.0000 </r>
       <r>    0.3661    0.0000 </r>
       <r>    5.9334    0.0000 </r>
       <r>    6.6614    0.0000 </r>
      </set>
      <set comment="kpoint 224">
       <r>  -18.1594    1.0000 </r>
       <r>  -17.2506    1.0000 </r>
       <r>  -14.0724    1.0000 </r>
       <r>  -13.2305    1.0000 </r>
       <r>  -11.6893    1.0000 </r>
       <r>  -10.9552    1.0000 </r>
       <r>   -5.7901    1.0000 </r>
       <r>   -4.8672    1.0000 </r>
       <r>   -0.7471    0.0000 </r>
       <r>    0.3058    0.0000 </r>
       <r>    5.9717    0.0000 </r>
       <r>    6.7091    0.0000 </r>
      </set>
      <set comment="kpoint 225">
       <r>  -18.1143    1.0000 </r>
       <r>  -17.2100    1.0000 </r>
       <r>  -14.3110    1.0000 </r>
       <r>  -13.4642    1.0000 </r>
       <r>  -11.4279    1.0000 </r>
       <r>  -10.7239    1.0000 </r>
       <r>   -5.7558    1.0000 </r>
       <r>   -4.8604    1.0000 </r>
       <r>   -0.8067    0.0000 </r>
       <r>    0.2100    0.0000 </r>
       <r>    6.0335    0.0000 </r>
       <r>    6.6977    0.0000 </r>
      </set>
      <set comment="kpoint 226">
       <r>  -18.0514    1.0000 </r>
       <r>  -17.1542    1.0000 </r>
       <r>  -14.5771    1.0000 </r>
       <r>  -13.7284    1.0000 </r>
       <r>  -11.1319    1.0000 </r>
       <r>  -10.4670    1.0000 </r>
       <r>   -5.7088    1.0000 </r>
       <r>   -4.8533    1.0000 </r>
       <r>   -0.8806    0.0000 </r>
       <r>    0.0850    0.0000 </r>
       <r>    6.0663    0.0000 </r>
       <r>    6.2050    0.0000 </r>
      </set>
      <set comment="kpoint 227">
       <r>  -17.9711    1.0000 </r>
       <r>  -17.0850    1.0000 </r>
       <r>  -14.8504    1.0000 </r>
       <r>  -14.0045    1.0000 </r>
       <r>  -10.8238    1.0000 </r>
       <r>  -10.2070    1.0000 </r>
       <r>   -5.6501    1.0000 </r>
       <r>   -4.8482    1.0000 </r>
       <r>   -0.9609    0.0000 </r>
       <r>   -0.0616    0.0000 </r>
       <r>    5.6198    0.0000 </r>
       <r>    6.2182    0.0000 </r>
      </set>
      <set comment="kpoint 228">
       <r>  -17.8738    1.0000 </r>
       <r>  -17.0053    1.0000 </r>
       <r>  -15.1174    1.0000 </r>
       <r>  -14.2816    1.0000 </r>
       <r>  -10.5184    1.0000 </r>
       <r>   -9.9596    1.0000 </r>
       <r>   -5.5811    1.0000 </r>
       <r>   -4.8478    1.0000 </r>
       <r>   -1.0389    0.0000 </r>
       <r>   -0.2219    0.0000 </r>
       <r>    5.1618    0.0000 </r>
       <r>    5.7082    0.0000 </r>
      </set>
      <set comment="kpoint 229">
       <r>  -17.7602    1.0000 </r>
       <r>  -16.9207    1.0000 </r>
       <r>  -15.3667    1.0000 </r>
       <r>  -14.5532    1.0000 </r>
       <r>  -10.2271    1.0000 </r>
       <r>   -9.7369    1.0000 </r>
       <r>   -5.5035    1.0000 </r>
       <r>   -4.8553    1.0000 </r>
       <r>   -1.1060    0.0000 </r>
       <r>   -0.3881    0.0000 </r>
       <r>    4.7607    0.0000 </r>
       <r>    5.2436    0.0000 </r>
      </set>
      <set comment="kpoint 230">
       <r>  -17.6312    1.0000 </r>
       <r>  -16.8424    1.0000 </r>
       <r>  -15.5834    1.0000 </r>
       <r>  -14.8146    1.0000 </r>
       <r>   -9.9600    1.0000 </r>
       <r>   -9.5496    1.0000 </r>
       <r>   -5.4195    1.0000 </r>
       <r>   -4.8733    1.0000 </r>
       <r>   -1.1546    0.0000 </r>
       <r>   -0.5528    0.0000 </r>
       <r>    4.4274    0.0000 </r>
       <r>    4.8340    0.0000 </r>
      </set>
      <set comment="kpoint 231">
       <r>  -17.4887    1.0000 </r>
       <r>  -16.7922    1.0000 </r>
       <r>  -15.7435    1.0000 </r>
       <r>  -15.0616    1.0000 </r>
       <r>   -9.7264    1.0000 </r>
       <r>   -9.4066    1.0000 </r>
       <r>   -5.3317    1.0000 </r>
       <r>   -4.9041    1.0000 </r>
       <r>   -1.1782    0.0000 </r>
       <r>   -0.7091    0.0000 </r>
       <r>    4.1711    0.0000 </r>
       <r>    4.4892    0.0000 </r>
      </set>
      <set comment="kpoint 232">
       <r>  -17.3352    1.0000 </r>
       <r>  -16.8016    1.0000 </r>
       <r>  -15.8142    1.0000 </r>
       <r>  -15.2901    1.0000 </r>
       <r>   -9.5351    1.0000 </r>
       <r>   -9.3156    1.0000 </r>
       <r>   -5.2432    1.0000 </r>
       <r>   -4.9489    1.0000 </r>
       <r>   -1.1727    0.0000 </r>
       <r>   -0.8507    0.0000 </r>
       <r>    3.9991    0.0000 </r>
       <r>    4.2180    0.0000 </r>
      </set>
      <set comment="kpoint 233">
       <r>  -17.1756    1.0000 </r>
       <r>  -16.8847    1.0000 </r>
       <r>  -15.7803    1.0000 </r>
       <r>  -15.4941    1.0000 </r>
       <r>   -9.3937    1.0000 </r>
       <r>   -9.2819    1.0000 </r>
       <r>   -5.1573    1.0000 </r>
       <r>   -5.0072    1.0000 </r>
       <r>   -1.1360    0.0000 </r>
       <r>   -0.9721    0.0000 </r>
       <r>    3.9169    0.0000 </r>
       <r>    4.0285    0.0000 </r>
      </set>
      <set comment="kpoint 234">
       <r>  -17.0193    1.0000 </r>
       <r>  -17.0193    1.0000 </r>
       <r>  -15.6637    1.0000 </r>
       <r>  -15.6637    1.0000 </r>
       <r>   -9.3081    1.0000 </r>
       <r>   -9.3081    1.0000 </r>
       <r>   -5.0776    1.0000 </r>
       <r>   -5.0776    1.0000 </r>
       <r>   -1.0685    0.0000 </r>
       <r>   -1.0685    0.0000 </r>
       <r>    3.9270    0.0000 </r>
       <r>    3.9270    0.0000 </r>
      </set>
      <set comment="kpoint 235">
       <r>  -17.7477    1.0000 </r>
       <r>  -17.7477    1.0000 </r>
       <r>  -13.4217    1.0000 </r>
       <r>  -13.4217    1.0000 </r>
       <r>  -11.5810    1.0000 </r>
       <r>  -11.5810    1.0000 </r>
       <r>   -5.3484    1.0000 </r>
       <r>   -5.3484    1.0000 </r>
       <r>   -0.1646    0.0000 </r>
       <r>   -0.1646    0.0000 </r>
       <r>    6.5591    0.0000 </r>
       <r>    6.5591    0.0000 </r>
      </set>
      <set comment="kpoint 236">
       <r>  -17.7390    1.0000 </r>
       <r>  -17.7390    1.0000 </r>
       <r>  -13.4883    1.0000 </r>
       <r>  -13.4883    1.0000 </r>
       <r>  -11.5120    1.0000 </r>
       <r>  -11.5120    1.0000 </r>
       <r>   -5.3435    1.0000 </r>
       <r>   -5.3435    1.0000 </r>
       <r>   -0.1823    0.0000 </r>
       <r>   -0.1823    0.0000 </r>
       <r>    6.5718    0.0000 </r>
       <r>    6.5718    0.0000 </r>
      </set>
      <set comment="kpoint 237">
       <r>  -17.7127    1.0000 </r>
       <r>  -17.7127    1.0000 </r>
       <r>  -13.6629    1.0000 </r>
       <r>  -13.6629    1.0000 </r>
       <r>  -11.3303    1.0000 </r>
       <r>  -11.3303    1.0000 </r>
       <r>   -5.3288    1.0000 </r>
       <r>   -5.3288    1.0000 </r>
       <r>   -0.2340    0.0000 </r>
       <r>   -0.2340    0.0000 </r>
       <r>    6.6095    0.0000 </r>
       <r>    6.6095    0.0000 </r>
      </set>
      <set comment="kpoint 238">
       <r>  -17.6690    1.0000 </r>
       <r>  -17.6690    1.0000 </r>
       <r>  -13.9002    1.0000 </r>
       <r>  -13.9002    1.0000 </r>
       <r>  -11.0828    1.0000 </r>
       <r>  -11.0828    1.0000 </r>
       <r>   -5.3050    1.0000 </r>
       <r>   -5.3050    1.0000 </r>
       <r>   -0.3154    0.0000 </r>
       <r>   -0.3154    0.0000 </r>
       <r>    6.6666    0.0000 </r>
       <r>    6.6666    0.0000 </r>
      </set>
      <set comment="kpoint 239">
       <r>  -17.6085    1.0000 </r>
       <r>  -17.6085    1.0000 </r>
       <r>  -14.1671    1.0000 </r>
       <r>  -14.1671    1.0000 </r>
       <r>  -10.8050    1.0000 </r>
       <r>  -10.8050    1.0000 </r>
       <r>   -5.2733    1.0000 </r>
       <r>   -5.2733    1.0000 </r>
       <r>   -0.4201    0.0000 </r>
       <r>   -0.4201    0.0000 </r>
       <r>    6.4292    0.0000 </r>
       <r>    6.4292    0.0000 </r>
      </set>
      <set comment="kpoint 240">
       <r>  -17.5316    1.0000 </r>
       <r>  -17.5316    1.0000 </r>
       <r>  -14.4442    1.0000 </r>
       <r>  -14.4442    1.0000 </r>
       <r>  -10.5194    1.0000 </r>
       <r>  -10.5194    1.0000 </r>
       <r>   -5.2352    1.0000 </r>
       <r>   -5.2352    1.0000 </r>
       <r>   -0.5403    0.0000 </r>
       <r>   -0.5403    0.0000 </r>
       <r>    5.9053    0.0000 </r>
       <r>    5.9053    0.0000 </r>
      </set>
      <set comment="kpoint 241">
       <r>  -17.4394    1.0000 </r>
       <r>  -17.4394    1.0000 </r>
       <r>  -14.7203    1.0000 </r>
       <r>  -14.7203    1.0000 </r>
       <r>  -10.2413    1.0000 </r>
       <r>  -10.2413    1.0000 </r>
       <r>   -5.1929    1.0000 </r>
       <r>   -5.1929    1.0000 </r>
       <r>   -0.6677    0.0000 </r>
       <r>   -0.6677    0.0000 </r>
       <r>    5.4180    0.0000 </r>
       <r>    5.4180    0.0000 </r>
      </set>
      <set comment="kpoint 242">
       <r>  -17.3335    1.0000 </r>
       <r>  -17.3335    1.0000 </r>
       <r>  -14.9877    1.0000 </r>
       <r>  -14.9877    1.0000 </r>
       <r>   -9.9824    1.0000 </r>
       <r>   -9.9824    1.0000 </r>
       <r>   -5.1490    1.0000 </r>
       <r>   -5.1490    1.0000 </r>
       <r>   -0.7938    0.0000 </r>
       <r>   -0.7938    0.0000 </r>
       <r>    4.9824    0.0000 </r>
       <r>    4.9824    0.0000 </r>
      </set>
      <set comment="kpoint 243">
       <r>  -17.2167    1.0000 </r>
       <r>  -17.2167    1.0000 </r>
       <r>  -15.2401    1.0000 </r>
       <r>  -15.2401    1.0000 </r>
       <r>   -9.7533    1.0000 </r>
       <r>   -9.7533    1.0000 </r>
       <r>   -5.1064    1.0000 </r>
       <r>   -5.1064    1.0000 </r>
       <r>   -0.9105    0.0000 </r>
       <r>   -0.9105    0.0000 </r>
       <r>    4.6086    0.0000 </r>
       <r>    4.6086    0.0000 </r>
      </set>
      <set comment="kpoint 244">
       <r>  -17.0943    1.0000 </r>
       <r>  -17.0943    1.0000 </r>
       <r>  -15.4698    1.0000 </r>
       <r>  -15.4698    1.0000 </r>
       <r>   -9.5632    1.0000 </r>
       <r>   -9.5632    1.0000 </r>
       <r>   -5.0685    1.0000 </r>
       <r>   -5.0685    1.0000 </r>
       <r>   -1.0104    0.0000 </r>
       <r>   -1.0104    0.0000 </r>
       <r>    4.3059    0.0000 </r>
       <r>    4.3059    0.0000 </r>
      </set>
      <set comment="kpoint 245">
       <r>  -16.9765    1.0000 </r>
       <r>  -16.9765    1.0000 </r>
       <r>  -15.6652    1.0000 </r>
       <r>  -15.6652    1.0000 </r>
       <r>   -9.4206    1.0000 </r>
       <r>   -9.4206    1.0000 </r>
       <r>   -5.0385    1.0000 </r>
       <r>   -5.0385    1.0000 </r>
       <r>   -1.0869    0.0000 </r>
       <r>   -1.0869    0.0000 </r>
       <r>    4.0826    0.0000 </r>
       <r>    4.0826    0.0000 </r>
      </set>
      <set comment="kpoint 246">
       <r>  -16.8835    1.0000 </r>
       <r>  -16.8835    1.0000 </r>
       <r>  -15.8051    1.0000 </r>
       <r>  -15.8051    1.0000 </r>
       <r>   -9.3320    1.0000 </r>
       <r>   -9.3320    1.0000 </r>
       <r>   -5.0192    1.0000 </r>
       <r>   -5.0192    1.0000 </r>
       <r>   -1.1350    0.0000 </r>
       <r>   -1.1350    0.0000 </r>
       <r>    3.9456    0.0000 </r>
       <r>    3.9456    0.0000 </r>
      </set>
      <set comment="kpoint 247">
       <r>  -16.8462    1.0000 </r>
       <r>  -16.8462    1.0000 </r>
       <r>  -15.8581    1.0000 </r>
       <r>  -15.8581    1.0000 </r>
       <r>   -9.3020    1.0000 </r>
       <r>   -9.3020    1.0000 </r>
       <r>   -5.0125    1.0000 </r>
       <r>   -5.0125    1.0000 </r>
       <r>   -1.1514    0.0000 </r>
       <r>   -1.1514    0.0000 </r>
       <r>    3.8994    0.0000 </r>
       <r>    3.8994    0.0000 </r>
      </set>
     </set>
    </set>
   </array>
  </eigenvalues>
  <separator name="orbital magnetization" >
   <v name="MAGDIPOLOUT">      0.00000000      0.00000000      0.00000000</v>
  </separator>
 </calculation>
 <structure name="finalpos" >
  <crystal>
   <varray name="basis" >
    <v>       4.37945591       0.00000000       0.00000000 </v>
    <v>       0.00000000       2.45723943       0.00000000 </v>
    <v>       0.00000000       0.00000000      19.59210280 </v>
   </varray>
   <i name="volume">    210.83790140 </i>
   <varray name="rec_basis" >
    <v>       0.22833887       0.00000000       0.00000000 </v>
    <v>       0.00000000       0.40696075       0.00000000 </v>
    <v>       0.00000000       0.00000000       0.05104097 </v>
   </varray>
  </crystal>
  <varray name="positions" >
   <v>       0.99946272       0.00000000       0.00000000 </v>
   <v>       0.16720395       0.50000000      -0.00000000 </v>
   <v>       0.49946272       0.50000000       0.00000000 </v>
   <v>       0.66720395       0.00000000      -0.00000000 </v>
  </varray>
 </structure>
</modeling>
