gr                                      
           1
     4.379456    0.000000    0.000000
     0.000000    2.457239    0.000000
     0.000000    0.000000   19.592103
   C 
   4
Direct configuration=     1
   0.99945869  0.00000000  0.00000000
   0.16720798  0.50000000  0.00000000
   0.49945869  0.50000000  0.00000000
   0.66720798  0.00000000  0.00000000
Direct configuration=     2
   0.99947760  0.00000000  0.00000000
   0.16718907  0.50000000 -0.00000000
   0.49947760  0.50000000  0.00000000
   0.66718907 -0.00000000 -0.00000000
Direct configuration=     3
   0.99946272  0.00000000  0.00000000
   0.16720395  0.50000000 -0.00000000
   0.49946272  0.50000000  0.00000000
   0.66720395 -0.00000000 -0.00000000
Direct configuration=     4
   0.99946271  0.00000000  0.00000000
   0.16720396  0.50000000 -0.00000000
   0.49946271  0.50000000  0.00000000
   0.66720396  0.00000000 -0.00000000
Direct configuration=     5
   0.99946271  0.00000000  0.00000000
   0.16720395  0.50000000 -0.00000000
   0.49946271  0.50000000  0.00000000
   0.66720395  0.00000000 -0.00000000
Direct configuration=     6
   0.99946273  0.00000000  0.00000000
   0.16720394  0.50000000 -0.00000000
   0.49946273  0.50000000  0.00000000
   0.66720394  0.00000000 -0.00000000
Direct configuration=     7
   0.99946272  0.00000000  0.00000000
   0.16720395  0.50000000 -0.00000000
   0.49946272  0.50000000  0.00000000
   0.66720395  0.00000000 -0.00000000
