    4    4  400    1
  0.5270948E+02  0.4401679E-09  0.2455421E-09  0.1950763E-08  0.5000000E-15
  1.000000000000000E-004
  CAR 
 gr                                      
     16    247     12
 
  0.0000000E+00  0.0000000E+00  0.0000000E+00  0.1157407E-02
    1      -22.045662
    2      -17.302125
    3      -15.801181
    4      -10.198388
    5       -8.737288
    6       -6.046440
    7       -5.717793
    8       -5.379230
    9       -1.205030
   10        0.549163
   11        1.346592
   12        1.742294
 
  0.4166667E-01  0.0000000E+00  0.0000000E+00  0.2314815E-02
    1      -22.036001
    2      -17.413152
    3      -15.675231
    4      -10.186941
    5       -8.727990
    6       -6.091034
    7       -5.737373
    8       -5.436446
    9       -1.132169
   10        0.562222
   11        1.359847
   12        1.755717
 
  0.8333333E-01  0.0000000E+00  0.0000000E+00  0.2314815E-02
    1      -22.007021
    2      -17.674977
    3      -15.368714
    4      -10.152617
    5       -8.700145
    6       -6.222629
    7       -5.795108
    8       -5.596810
    9       -0.925023
   10        0.601410
   11        1.399609
   12        1.795991
 
  0.1250000E+00  0.0000000E+00  0.0000000E+00  0.2314815E-02
    1      -21.958745
    2      -17.995996
    3      -14.973452
    4      -10.095474
    5       -8.653906
    6       -6.435100
    7       -5.888139
    8       -5.834219
    9       -0.610161
   10        0.666751
   11        1.465861
   12        1.863119
 
  0.1666667E+00  0.0000000E+00  0.0000000E+00  0.2314815E-02
    1      -21.891206
    2      -18.333674
    3      -14.532365
    4      -10.015612
    5       -8.589531
    6       -6.719527
    7       -6.121160
    8       -6.012162
    9       -0.215886
   10        0.758274
   11        1.558575
   12        1.957107
 
  0.2083333E+00  0.0000000E+00  0.0000000E+00  0.2314815E-02
    1      -21.804458
    2      -18.670861
    3      -14.063147
    4       -9.913174
    5       -8.507396
    6       -7.065559
    7       -6.435834
    8       -6.161969
    9        0.234857
   10        0.876000
   11        1.677707
   12        2.077959
 
  0.2500000E+00  0.0000000E+00  0.0000000E+00  0.2314815E-02
    1      -21.698565
    2      -18.999907
    3      -13.574176
    4       -9.788350
    5       -8.407998
    6       -7.462608
    7       -6.762938
    8       -6.331977
    9        0.725222
   10        1.019934
   11        1.823184
   12        2.225676
 
  0.2916667E+00  0.0000000E+00  0.0000000E+00  0.2314815E-02
    1      -21.573614
    2      -19.316939
    3      -13.070257
    4       -9.641392
    5       -8.291978
    6       -7.900674
    7       -7.092157
    8       -6.516662
    9        1.190062
   10        1.242850
   11        1.994892
   12        2.400259
 
  0.3333333E+00  0.0000000E+00  0.0000000E+00  0.2314815E-02
    1      -21.429710
    2      -19.619766
    3      -12.554744
    4       -9.472615
    5       -8.370779
    6       -8.160137
    7       -7.416539
    8       -6.710846
    9        1.386355
   10        1.778004
   11        2.192634
   12        2.601702
 
  0.3750000E+00  0.0000000E+00  0.0000000E+00  0.2314815E-02
    1      -21.266981
    2      -19.907028
    3      -12.030430
    4       -9.282418
    5       -8.865125
    6       -8.013461
    7       -7.731320
    8       -6.909863
    9        1.608766
   10        2.321564
   11        2.416033
   12        2.829998
 
  0.4166667E+00  0.0000000E+00  0.0000000E+00  0.2314815E-02
    1      -21.085581
    2      -20.177816
    3      -11.499970
    4       -9.377047
    5       -9.071302
    6       -8.033158
    7       -7.853155
    8       -7.109621
    9        1.857231
   10        2.664227
   11        2.859821
   12        3.085143
 
  0.4583333E+00  0.0000000E+00  0.0000000E+00  0.2314815E-02
    1      -20.885700
    2      -20.431488
    3      -10.966128
    4       -9.900909
    5       -8.839896
    6       -8.319643
    7       -7.680676
    8       -7.306592
    9        2.131665
   10        2.757945
   11        2.934644
   12        3.311609
 
  0.5000000E+00  0.0000000E+00  0.0000000E+00  0.1157407E-02
    1      -20.667573
    2      -20.667573
    3      -10.431950
    4      -10.431950
    5       -8.589001
    6       -8.589001
    7       -7.497785
    8       -7.497785
    9        2.431955
   10        2.431955
   11        3.214176
   12        3.214176
 
  0.0000000E+00  0.2777778E-01  0.0000000E+00  0.2314815E-02
    1      -22.031803
    2      -17.290068
    3      -15.789350
    4      -10.181960
    5       -8.800933
    6       -6.071757
    7       -5.777262
    8       -5.362534
    9       -1.207196
   10        0.567932
   11        1.365542
   12        1.761484
 
  0.4166667E-01  0.2777778E-01  0.0000000E+00  0.4629630E-02
    1      -22.022143
    2      -17.400985
    3      -15.663554
    4      -10.170516
    5       -8.791624
    6       -6.116789
    7       -5.795810
    8       -5.419858
    9       -1.134326
   10        0.580991
   11        1.378796
   12        1.774908
 
  0.8333333E-01  0.2777778E-01  0.0000000E+00  0.4629630E-02
    1      -21.993168
    2      -17.662596
    3      -15.357380
    4      -10.136204
    5       -8.763746
    6       -6.248783
    7       -5.851477
    8       -5.580479
    9       -0.927220
   10        0.620179
   11        1.418556
   12        1.815182
 
  0.1250000E+00  0.2777778E-01  0.0000000E+00  0.4629630E-02
    1      -21.944899
    2      -17.983407
    3      -14.962550
    4      -10.079080
    5       -8.717450
    6       -6.460407
    7       -5.942887
    8       -5.818167
    9       -0.612576
   10        0.685520
   11        1.484805
   12        1.882310
 
  0.1666667E+00  0.2777778E-01  0.0000000E+00  0.4629630E-02
    1      -21.877372
    2      -18.320901
    3      -14.521965
    4       -9.999245
    5       -8.652991
    6       -6.742570
    7       -6.105328
    8       -6.066258
    9       -0.218778
   10        0.777045
   11        1.577516
   12        1.976298
 
  0.2083333E+00  0.2777778E-01  0.0000000E+00  0.4629630E-02
    1      -21.790638
    2      -18.657929
    3      -14.053334
    4       -9.896840
    5       -8.570737
    6       -7.085370
    7       -6.420141
    8       -6.216245
    9        0.231207
   10        0.894774
   11        1.696642
   12        2.097151
 
  0.2500000E+00  0.2777778E-01  0.0000000E+00  0.4629630E-02
    1      -21.684764
    2      -18.986837
    3      -13.565046
    4       -9.772058
    5       -8.471180
    6       -7.478747
    7       -6.747312
    8       -6.386971
    9        0.720547
   10        1.038711
   11        1.842115
   12        2.244870
 
  0.2916667E+00  0.2777778E-01  0.0000000E+00  0.4629630E-02
    1      -21.559837
    2      -19.303751
    3      -13.061927
    4       -9.625148
    5       -8.354952
    6       -7.913097
    7       -7.076542
    8       -6.572654
    9        1.208845
   10        1.236917
   11        2.013820
   12        2.419455
 
  0.3333333E+00  0.2777778E-01  0.0000000E+00  0.4629630E-02
    1      -21.415960
    2      -19.606474
    3      -12.547354
    4       -9.456427
    5       -8.379689
    6       -8.222843
    7       -7.400898
    8       -6.767931
    9        1.405144
   10        1.770645
   11        2.211563
   12        2.620901
 
  0.3750000E+00  0.2777778E-01  0.0000000E+00  0.4629630E-02
    1      -21.253263
    2      -19.893647
    3      -12.024145
    4       -9.266292
    5       -8.870846
    6       -8.075828
    7       -7.715628
    8       -6.968024
    9        1.627563
   10        2.312778
   11        2.434968
   12        2.849202
 
  0.4166667E+00  0.2777778E-01  0.0000000E+00  0.4629630E-02
    1      -21.071901
    2      -20.164357
    3      -11.494986
    4       -9.379949
    5       -9.055244
    6       -8.017399
    7       -7.915098
    8       -7.168773
    9        1.876037
   10        2.683179
   11        2.850351
   12        3.104349
 
  0.4583333E+00  0.2777778E-01  0.0000000E+00  0.4629630E-02
    1      -20.872064
    2      -20.417962
    3      -10.962675
    4       -9.901362
    5       -8.823911
    6       -8.303811
    7       -7.742097
    8       -7.366624
    9        2.150481
   10        2.776800
   11        2.953595
   12        3.311628
 
  0.5000000E+00  0.2777778E-01  0.0000000E+00  0.2314815E-02
    1      -20.653988
    2      -20.653988
    3      -10.430296
    4      -10.430296
    5       -8.573093
    6       -8.573093
    7       -7.558572
    8       -7.558572
    9        2.450786
   10        2.450786
   11        3.232554
   12        3.232554
 
  0.0000000E+00  0.5555556E-01  0.0000000E+00  0.2314815E-02
    1      -21.990236
    2      -17.253903
    3      -15.753995
    4      -10.132711
    5       -8.986694
    6       -6.147377
    7       -5.950744
    8       -5.312470
    9       -1.214494
   10        0.624239
   11        1.422384
   12        1.819055
 
  0.4166667E-01  0.5555556E-01  0.0000000E+00  0.4629630E-02
    1      -21.980580
    2      -17.364492
    3      -15.628658
    4      -10.121278
    5       -8.977349
    6       -6.195634
    7       -5.964323
    8       -5.370127
    9       -1.141592
   10        0.637297
   11        1.435636
   12        1.832479
 
  0.8333333E-01  0.5555556E-01  0.0000000E+00  0.4629630E-02
    1      -21.951619
    2      -17.625470
    3      -15.323519
    4      -10.087000
    5       -8.949361
    6       -6.331206
    7       -6.011478
    8       -5.531537
    9       -0.934604
   10        0.676484
   11        1.475390
   12        1.872753
 
  0.1250000E+00  0.5555556E-01  0.0000000E+00  0.4629630E-02
    1      -21.903374
    2      -17.945656
    3      -14.929994
    4      -10.029935
    5       -8.902873
    6       -6.541165
    7       -6.097236
    8       -5.770080
    9       -0.620621
   10        0.741824
   11        1.541629
   12        1.939882
 
  0.1666667E+00  0.5555556E-01  0.0000000E+00  0.4629630E-02
    1      -21.835881
    2      -18.282600
    3      -14.490942
    4       -9.950180
    5       -8.838128
    6       -6.816490
    7       -6.218752
    8       -6.057914
    9       -0.228280
   10        0.833350
   11        1.634327
   12        2.033871
 
  0.2083333E+00  0.5555556E-01  0.0000000E+00  0.4629630E-02
    1      -21.749192
    2      -18.619150
    3      -14.024099
    4       -9.847878
    5       -8.755478
    6       -7.149151
    7       -6.373150
    8       -6.369752
    9        0.219387
   10        0.951082
   11        1.753439
   12        2.154726
 
  0.2500000E+00  0.5555556E-01  0.0000000E+00  0.4629630E-02
    1      -21.643374
    2      -18.947645
    3      -13.537905
    4       -9.723223
    5       -8.655391
    6       -7.530916
    7       -6.700521
    8       -6.543232
    9        0.705589
   10        1.095027
   11        1.898898
   12        2.302449
 
  0.2916667E+00  0.5555556E-01  0.0000000E+00  0.4629630E-02
    1      -21.518516
    2      -19.264201
    3      -13.037245
    4       -9.576461
    5       -8.538469
    6       -7.953498
    7       -7.029784
    8       -6.732511
    9        1.218101
   10        1.265172
   11        2.070592
   12        2.477040
 
  0.3333333E+00  0.5555556E-01  0.0000000E+00  0.4629630E-02
    1      -21.374722
    2      -19.566614
    3      -12.525566
    4       -9.407909
    5       -8.408964
    6       -8.405471
    7       -7.354055
    8       -6.931624
    9        1.461486
   10        1.747436
   11        2.268335
   12        2.678494
 
  0.3750000E+00  0.5555556E-01  0.0000000E+00  0.4629630E-02
    1      -21.212122
    2      -19.853518
    3      -12.005772
    4       -9.217964
    5       -8.890044
    6       -8.257330
    7       -7.668626
    8       -7.135419
    9        1.683921
   10        2.285090
   11        2.491761
   12        2.906804
 
  0.4166667E+00  0.5555556E-01  0.0000000E+00  0.4629630E-02
    1      -21.030873
    2      -20.123994
    3      -11.480644
    4       -9.390265
    5       -9.007124
    6       -8.095194
    7       -7.970194
    8       -7.339542
    9        1.932413
   10        2.740023
   11        2.819979
   12        3.161969
 
  0.4583333E+00  0.5555556E-01  0.0000000E+00  0.4629630E-02
    1      -20.831168
    2      -20.377396
    3      -10.953093
    4       -9.903984
    5       -8.776013
    6       -8.256379
    7       -7.920458
    8       -7.540351
    9        2.206880
   10        2.833275
   11        3.010443
   12        3.303291
 
  0.5000000E+00  0.5555556E-01  0.0000000E+00  0.2314815E-02
    1      -20.613245
    2      -20.613245
    3      -10.426327
    4      -10.426327
    5       -8.525426
    6       -8.525426
    7       -7.734823
    8       -7.734823
    9        2.507214
   10        2.507214
   11        3.287310
   12        3.287310
 
  0.0000000E+00  0.8333333E-01  0.0000000E+00  0.2314815E-02
    1      -21.920995
    2      -17.193640
    3      -15.695555
    4      -10.050747
    5       -9.280519
    6       -6.272290
    7       -6.225029
    8       -5.229102
    9       -1.229325
   10        0.718079
   11        1.517095
   12        1.915009
 
  0.4166667E-01  0.8333333E-01  0.0000000E+00  0.4629630E-02
    1      -21.911347
    2      -17.303699
    3      -15.570979
    4      -10.039335
    5       -9.271101
    6       -6.343523
    7       -6.212816
    8       -5.287348
    9       -1.156356
   10        0.731136
   11        1.530344
   12        1.928432
 
  0.8333333E-01  0.8333333E-01  0.0000000E+00  0.4629630E-02
    1      -21.882409
    2      -17.563641
    3      -15.267575
    4      -10.005116
    5       -9.242887
    6       -6.491023
    7       -6.240068
    8       -5.450144
    9       -0.949549
   10        0.770317
   11        1.570087
   12        1.968705
 
  0.1250000E+00  0.8333333E-01  0.0000000E+00  0.4629630E-02
    1      -21.834204
    2      -17.882796
    3      -14.876272
    4       -9.948149
    5       -9.196008
    6       -6.697685
    7       -6.317216
    8       -5.690177
    9       -0.636693
   10        0.835650
   11        1.636308
   12        2.035833
 
  0.1666667E+00  0.8333333E-01  0.0000000E+00  0.4629630E-02
    1      -21.766769
    2      -18.218823
    3      -14.439855
    4       -9.868533
    5       -9.130683
    6       -6.959758
    7       -6.437732
    8       -5.979172
    9       -0.246864
   10        0.927168
   11        1.728981
   12        2.129822
 
  0.2083333E+00  0.8333333E-01  0.0000000E+00  0.4629630E-02
    1      -21.680155
    2      -18.554576
    3      -13.976111
    4       -9.766409
    5       -9.047230
    6       -7.273196
    7       -6.592872
    8       -6.295129
    9        0.196795
   10        1.044896
   11        1.848065
   12        2.250678
 
  0.2500000E+00  0.8333333E-01  0.0000000E+00  0.4629630E-02
    1      -21.574432
    2      -18.882381
    3      -13.493568
    4       -9.641970
    5       -8.946074
    6       -7.633018
    7       -6.773547
    8       -6.622835
    9        0.677569
   10        1.188840
   11        1.993496
   12        2.398405
 
  0.2916667E+00  0.8333333E-01  0.0000000E+00  0.4629630E-02
    1      -21.449689
    2      -19.198338
    3      -12.997220
    4       -9.495463
    5       -8.827759
    6       -8.033366
    7       -6.971382
    8       -6.952142
    9        1.183395
   10        1.358989
   11        2.165169
   12        2.573001
 
  0.3333333E+00  0.8333333E-01  0.0000000E+00  0.4629630E-02
    1      -21.306032
    2      -19.500232
    3      -12.490650
    4       -9.327203
    5       -8.692974
    6       -8.467860
    7       -7.276259
    8       -7.179217
    9        1.555310
   10        1.705056
   11        2.362909
   12        2.774464
 
  0.3750000E+00  0.8333333E-01  0.0000000E+00  0.4629630E-02
    1      -21.143593
    2      -19.786684
    3      -11.976922
    4       -9.137584
    5       -8.930037
    6       -8.542568
    7       -7.590548
    8       -7.391186
    9        1.777754
   10        2.234649
   11        2.586371
   12        3.002787
 
  0.4166667E+00  0.8333333E-01  0.0000000E+00  0.4629630E-02
    1      -20.962534
    2      -20.056769
    3      -11.459007
    4       -9.413711
    5       -8.927101
    6       -8.377591
    7       -7.891758
    8       -7.602580
    9        2.026256
   10        2.763305
   11        2.834730
   12        3.257962
 
  0.4583333E+00  0.8333333E-01  0.0000000E+00  0.4629630E-02
    1      -20.763049
    2      -20.309830
    3      -10.940038
    4       -9.913210
    5       -8.696375
    6       -8.199328
    7       -8.177549
    8       -7.809640
    9        2.300733
   10        2.927164
   11        3.105162
   12        3.265420
 
  0.5000000E+00  0.8333333E-01  0.0000000E+00  0.2314815E-02
    1      -20.545382
    2      -20.545382
    3      -10.423470
    4      -10.423470
    5       -8.446189
    6       -8.446189
    7       -8.009361
    8       -8.009361
    9        2.601080
   10        2.601080
   11        3.376506
   12        3.376507
 
  0.0000000E+00  0.1111111E+00  0.0000000E+00  0.2314815E-02
    1      -21.824140
    2      -17.109301
    3      -15.614851
    4       -9.936251
    5       -9.662958
    6       -6.582208
    7       -6.444751
    8       -5.112542
    9       -1.255703
   10        0.849448
   11        1.649636
   12        2.049344
 
  0.4166667E-01  0.1111111E+00  0.0000000E+00  0.4629630E-02
    1      -21.814503
    2      -17.218654
    3      -15.491330
    4       -9.924868
    5       -9.653406
    6       -6.638381
    7       -6.443864
    8       -5.171687
    9       -1.182601
   10        0.862500
   11        1.662879
   12        2.062767
 
  0.8333333E-01  0.1111111E+00  0.0000000E+00  0.4629630E-02
    1      -21.785599
    2      -17.477189
    3      -15.190390
    4       -9.890736
    5       -9.624786
    6       -6.774972
    7       -6.471384
    8       -5.336584
    9       -0.975994
   10        0.901668
   11        1.702603
   12        2.103037
 
  0.1250000E+00  0.1111111E+00  0.0000000E+00  0.4629630E-02
    1      -21.737451
    2      -17.794919
    3      -14.802314
    4       -9.833914
    5       -9.577203
    6       -6.967129
    7       -6.547002
    8       -5.578848
    9       -0.664748
   10        0.966980
   11        1.768793
   12        2.170162
 
  0.1666667E+00  0.1111111E+00  0.0000000E+00  0.4629630E-02
    1      -21.670095
    2      -18.129666
    3      -14.369787
    4       -9.754500
    5       -9.510834
    6       -7.206824
    7       -6.670481
    8       -5.869556
    9       -0.278596
   10        1.058472
   11        1.861426
   12        2.264147
 
  0.2083333E+00  0.1111111E+00  0.0000000E+00  0.4629630E-02
    1      -21.583587
    2      -18.464299
    3      -13.910676
    4       -9.652636
    5       -9.425937
    6       -7.490297
    7       -6.834792
    8       -6.186558
    9        0.159175
   10        1.176173
   11        1.980463
   12        2.385001
 
  0.2500000E+00  0.1111111E+00  0.0000000E+00  0.4629630E-02
    1      -21.477998
    2      -18.791131
    3      -13.433649
    4       -9.528514
    5       -9.322852
    6       -7.815103
    7       -7.029929
    8       -6.514731
    9        0.631964
   10        1.320095
   11        2.125843
   12        2.532727
 
  0.2916667E+00  0.1111111E+00  0.0000000E+00  0.4629630E-02
    1      -21.353415
    2      -19.106244
    3      -12.943888
    4       -9.382381
    5       -9.202017
    6       -8.178753
    7       -7.245236
    8       -6.844077
    9        1.127942
   10        1.490225
   11        2.297474
   12        2.707327
 
  0.3333333E+00  0.1111111E+00  0.0000000E+00  0.4629630E-02
    1      -21.209950
    2      -19.407404
    3      -12.445210
    4       -9.214550
    5       -9.063980
    6       -8.577848
    7       -7.471145
    8       -7.167944
    9        1.638222
   10        1.686532
   11        2.495200
   12        2.908796
 
  0.3750000E+00  0.1111111E+00  0.0000000E+00  0.4629630E-02
    1      -21.047740
    2      -19.693218
    3      -11.940965
    4       -9.025411
    5       -9.007863
    6       -8.909416
    7       -7.700046
    8       -7.481800
    9        1.908962
   10        2.155513
   11        2.718712
   12        3.137129
 
  0.4166667E+00  0.1111111E+00  0.0000000E+00  0.4629630E-02
    1      -20.866947
    2      -19.962751
    3      -11.434476
    4       -9.463473
    5       -8.815456
    6       -8.739157
    7       -7.926313
    8       -7.782471
    9        2.157446
   10        2.672779
   11        2.967236
   12        3.392367
 
  0.4583333E+00  0.1111111E+00  0.0000000E+00  0.4629630E-02
    1      -20.667774
    2      -20.215333
    3      -10.929293
    4       -9.939102
    5       -8.585296
    6       -8.554236
    7       -8.145915
    8       -8.067670
    9        2.431897
   10        3.058251
   11        3.178328
   12        3.237703
 
  0.5000000E+00  0.1111111E+00  0.0000000E+00  0.2314815E-02
    1      -20.450467
    2      -20.450467
    3      -10.429359
    4      -10.429359
    5       -8.355941
    6       -8.355941
    7       -8.335705
    8       -8.335705
    9        2.732210
   10        2.732210
   11        3.488483
   12        3.488484
 
  0.0000000E+00  0.1388889E+00  0.0000000E+00  0.2314815E-02
    1      -21.699756
    2      -17.000917
    3      -15.513268
    4      -10.112728
    5       -9.789486
    6       -7.003399
    7       -6.662236
    8       -4.962951
    9       -1.299194
   10        1.018329
   11        1.819946
   12        2.222063
 
  0.4166667E-01  0.1388889E+00  0.0000000E+00  0.4629630E-02
    1      -21.690133
    2      -17.109425
    3      -15.391094
    4      -10.102947
    5       -9.778142
    6       -7.049080
    7       -6.667378
    8       -5.023399
    9       -1.225831
   10        1.031373
   11        1.833179
   12        2.235484
 
  0.8333333E-01  0.1388889E+00  0.0000000E+00  0.4629630E-02
    1      -21.661272
    2      -17.366231
    3      -15.093407
    4      -10.073628
    5       -9.744128
    6       -7.171901
    7       -6.695872
    8       -5.191311
    9       -1.019339
   10        1.070517
   11        1.872872
   12        2.275749
 
  0.1250000E+00  0.1388889E+00  0.0000000E+00  0.4629630E-02
    1      -21.613197
    2      -17.682164
    3      -14.709737
    4      -10.024828
    5       -9.687503
    6       -7.350173
    7       -6.765871
    8       -5.436718
    9       -0.710168
   10        1.135790
   11        1.939014
   12        2.342866
 
  0.1666667E+00  0.1388889E+00  0.0000000E+00  0.4629630E-02
    1      -21.545947
    2      -18.015271
    3      -14.282653
    4       -9.956651
    5       -9.608365
    6       -7.570398
    7       -6.884857
    8       -5.729787
    9       -0.328965
   10        1.227231
   11        2.031579
   12        2.436841
 
  0.2083333E+00  0.1388889E+00  0.0000000E+00  0.4629630E-02
    1      -21.459575
    2      -18.348457
    3      -13.830147
    4       -9.869234
    5       -9.506856
    6       -7.825439
    7       -7.051536
    8       -6.048188
    9        0.100818
   10        1.344873
   11        2.150533
   12        2.557685
 
  0.2500000E+00  0.1388889E+00  0.0000000E+00  0.4629630E-02
    1      -21.354156
    2      -18.674027
    3      -13.361124
    4       -9.762758
    5       -9.383168
    6       -8.112027
    7       -7.258756
    8       -6.376950
    9        0.562777
   10        1.488736
   11        2.295823
   12        2.705405
 
  0.2916667E+00  0.1388889E+00  0.0000000E+00  0.4629630E-02
    1      -21.229782
    2      -18.988040
    3      -12.881091
    4       -9.637436
    5       -9.237547
    6       -8.429403
    7       -7.495588
    8       -6.706299
    9        1.045401
   10        1.658811
   11        2.467371
   12        2.880001
 
  0.3333333E+00  0.1388889E+00  0.0000000E+00  0.4629630E-02
    1      -21.086567
    2      -19.288246
    3      -12.394287
    4       -9.493519
    5       -9.070303
    6       -8.778009
    7       -7.749481
    8       -7.029777
    9        1.540199
   10        1.855066
   11        2.665047
   12        3.081471
 
  0.3750000E+00  0.1388889E+00  0.0000000E+00  0.4629630E-02
    1      -20.924651
    2      -19.573232
    3      -11.904605
    4       -9.331293
    5       -9.157923
    6       -8.881825
    7       -8.008573
    8       -7.343000
    9        2.040442
   10        2.077444
   11        2.888608
   12        3.309808
 
  0.4166667E+00  0.1388889E+00  0.0000000E+00  0.4629630E-02
    1      -20.744204
    2      -19.842045
    3      -11.416049
    4       -9.567563
    5       -9.151096
    6       -8.672596
    7       -8.263514
    8       -7.642900
    9        2.325868
   10        2.540298
   11        3.137405
   12        3.565007
 
  0.4583333E+00  0.1388889E+00  0.0000000E+00  0.4629630E-02
    1      -20.545435
    2      -20.094004
    3      -10.932998
    4      -10.003353
    5       -8.953352
    6       -8.508081
    7       -8.443220
    8       -7.927266
    9        2.600244
   10        3.033627
   11        3.226370
   12        3.407935
 
  0.5000000E+00  0.1388889E+00  0.0000000E+00  0.2314815E-02
    1      -20.328597
    2      -20.328597
    3      -10.460323
    4      -10.460323
    5       -8.738669
    6       -8.738669
    7       -8.194455
    8       -8.194455
    9        2.900458
   10        2.900458
   11        3.498202
   12        3.498203
 
  0.0000000E+00  0.1666667E+00  0.0000000E+00  0.2314815E-02
    1      -21.547959
    2      -16.868530
    3      -15.393108
    4      -10.609011
    5       -9.610802
    6       -7.471227
    7       -6.921433
    8       -4.780536
    9       -1.366731
   10        1.224698
   11        2.027940
   12        2.433163
 
  0.4166667E-01  0.1666667E+00  0.0000000E+00  0.4629630E-02
    1      -21.538354
    2      -16.976114
    3      -15.272581
    4      -10.598840
    5       -9.599510
    6       -7.514819
    7       -6.923694
    8       -4.842856
    9       -1.292849
   10        1.237731
   11        2.041156
   12        2.446582
 
  0.8333333E-01  0.1666667E+00  0.0000000E+00  0.4629630E-02
    1      -21.509547
    2      -17.230945
    3      -14.979075
    4      -10.568317
    5       -9.565652
    6       -7.633850
    7       -6.941625
    8       -5.015019
    9       -1.086156
   10        1.276839
   11        2.080800
   12        2.486840
 
  0.1250000E+00  0.1666667E+00  0.0000000E+00  0.4629630E-02
    1      -21.461561
    2      -17.544737
    3      -14.601350
    4      -10.517415
    5       -9.509286
    6       -7.807153
    7       -6.994437
    8       -5.264745
    9       -0.779410
   10        1.342052
   11        2.146859
   12        2.553943
 
  0.1666667E+00  0.1666667E+00  0.0000000E+00  0.4629630E-02
    1      -21.394438
    2      -17.875847
    3      -14.181862
    4      -10.446077
    5       -9.430512
    6       -8.018588
    7       -7.094532
    8       -5.560955
    9       -0.404480
   10        1.433408
   11        2.239308
   12        2.647900
 
  0.2083333E+00  0.1666667E+00  0.0000000E+00  0.4629630E-02
    1      -21.308233
    2      -18.207249
    3      -13.738838
    4      -10.354200
    5       -9.329472
    6       -8.258127
    7       -7.246049
    8       -5.881141
    9        0.015048
   10        1.550949
   11        2.358115
   12        2.768722
 
  0.2500000E+00  0.1666667E+00  0.0000000E+00  0.4629630E-02
    1      -21.203024
    2      -18.531253
    3      -13.281615
    4      -10.241608
    5       -9.206357
    6       -8.519980
    7       -7.446704
    8       -6.210587
    9        0.463110
   10        1.694702
   11        2.503232
   12        2.916420
 
  0.2916667E+00  0.1666667E+00  0.0000000E+00  0.4629630E-02
    1      -21.078906
    2      -18.843902
    3      -12.816323
    4      -10.108021
    5       -9.061412
    6       -8.801489
    7       -7.689301
    8       -6.539841
    9        0.928662
   10        1.864670
   11        2.674591
   12        3.091001
 
  0.3333333E+00  0.1666667E+00  0.0000000E+00  0.4629630E-02
    1      -20.935999
    2      -19.142922
    3      -12.348046
    4       -9.953008
    5       -9.102619
    6       -8.894948
    7       -7.962952
    8       -6.862716
    9        1.403715
   10        2.060821
   11        2.872102
   12        3.292462
 
  0.3750000E+00  0.1666667E+00  0.0000000E+00  0.4629630E-02
    1      -20.774446
    2      -19.426877
    3      -11.881773
    4       -9.775959
    5       -9.425454
    6       -8.707348
    7       -8.254378
    8       -7.175031
    9        1.882110
   10        2.283096
   11        3.095619
   12        3.520798
 
  0.4166667E+00  0.1666667E+00  0.0000000E+00  0.4629630E-02
    1      -20.594429
    2      -19.694795
    3      -11.422855
    4       -9.773150
    5       -9.576101
    6       -8.549637
    7       -8.499089
    8       -7.473857
    9        2.358786
   10        2.531409
   11        3.344802
   12        3.776384
 
  0.4583333E+00  0.1666667E+00  0.0000000E+00  0.4629630E-02
    1      -20.396160
    2      -19.945980
    3      -10.977109
    4      -10.148165
    5       -9.352696
    6       -8.836329
    7       -8.270765
    8       -7.757077
    9        2.805652
   10        2.829327
   11        3.431386
   12        3.614307
 
  0.5000000E+00  0.1666667E+00  0.0000000E+00  0.2314815E-02
    1      -20.179903
    2      -20.179903
    3      -10.550492
    4      -10.550492
    5       -9.105591
    6       -9.105591
    7       -8.023115
    8       -8.023115
    9        3.105696
   10        3.105696
   11        3.289400
   12        3.289400
 