       N       E                     dE             d eps       ncg     rms          rms(c)
DAV:   1     0.187077793204E+03    0.18708E+03   -0.10672E+04  5928   0.276E+03
DAV:   2    -0.876814655075E+01   -0.19585E+03   -0.17336E+03 10292   0.258E+02
DAV:   3    -0.380224095483E+02   -0.29254E+02   -0.28666E+02  7400   0.118E+02    0.704E+00
RMM:   4    -0.375296920726E+02    0.49272E+00   -0.94942E+00  5928   0.266E+01    0.407E+00
RMM:   5    -0.368374545875E+02    0.69224E+00   -0.25499E+00  5930   0.109E+01    0.675E-01
RMM:   6    -0.368395320575E+02   -0.20775E-02   -0.79157E-02  6371   0.200E+00    0.486E-01
RMM:   7    -0.368307004104E+02    0.88316E-02   -0.29152E-02  5955   0.149E+00    0.312E-01
RMM:   8    -0.368263520586E+02    0.43484E-02   -0.56554E-03  5931   0.500E-01    0.133E-01
RMM:   9    -0.368261266724E+02    0.22539E-03   -0.18305E-02  5928   0.798E-01    0.143E-01
RMM:  10    -0.368261167946E+02    0.98778E-05   -0.18097E-03  5928   0.310E-01    0.264E-02
RMM:  11    -0.368283062878E+02   -0.21895E-02   -0.61233E-04  5932   0.167E-01    0.390E-02
RMM:  12    -0.368288423334E+02   -0.53605E-03   -0.20172E-04  5949   0.937E-02    0.353E-03
RMM:  13    -0.368290883402E+02   -0.24601E-03   -0.38656E-05  6070   0.292E-02    0.248E-03
RMM:  14    -0.368291708848E+02   -0.82545E-04   -0.10124E-05  6007   0.129E-02    0.883E-04
RMM:  15    -0.368291838985E+02   -0.13014E-04   -0.16744E-06  5944   0.704E-03    0.236E-03
RMM:  16    -0.368291976319E+02   -0.13733E-04   -0.20702E-06  5928   0.952E-03    0.141E-03
RMM:  17    -0.368292038356E+02   -0.62037E-05   -0.24724E-07  5928   0.304E-03    0.356E-04
RMM:  18    -0.368292049009E+02   -0.10653E-05   -0.16611E-08  5986   0.107E-03    0.811E-05
RMM:  19    -0.368292055930E+02   -0.69206E-06   -0.93882E-09  5129   0.396E-04    0.146E-05
RMM:  20    -0.368292056203E+02   -0.27306E-07   -0.50277E-10  4551   0.122E-04    0.183E-05
RMM:  21    -0.368292056307E+02   -0.10448E-07   -0.15190E-10  4264   0.721E-05    0.967E-06
RMM:  22    -0.368292056308E+02   -0.30013E-10   -0.18935E-11  3886   0.492E-05
   1 F= -.36829206E+02 E0= -.36829206E+02  d E =-.368292E+02
       N       E                     dE             d eps       ncg     rms          rms(c)
DAV:   1    -0.368292056127E+02    0.18026E-07   -0.17840E-06  6512   0.125E-02    0.247E-04
RMM:   2    -0.368292056160E+02   -0.32636E-08   -0.28686E-08  5978   0.149E-03    0.180E-04
RMM:   3    -0.368292056172E+02   -0.12606E-08   -0.48183E-09  5948   0.558E-04    0.485E-05
RMM:   4    -0.368292056169E+02    0.30161E-09   -0.31835E-10  4448   0.147E-04    0.137E-05
RMM:   5    -0.368292056171E+02   -0.17576E-09   -0.23084E-11  3770   0.575E-05    0.616E-06
RMM:   6    -0.368292056170E+02    0.10618E-09   -0.12203E-11  3405   0.413E-05    0.155E-06
RMM:   7    -0.368292056169E+02    0.60254E-10   -0.74325E-12  3144   0.329E-05
   2 F= -.36829206E+02 E0= -.36829206E+02  d E =0.138242E-07
       N       E                     dE             d eps       ncg     rms          rms(c)
DAV:   1    -0.368292056349E+02   -0.17898E-07   -0.10882E-06  6772   0.978E-03    0.195E-04
RMM:   2    -0.368292056353E+02   -0.38290E-09   -0.16944E-08  5966   0.116E-03    0.141E-04
RMM:   3    -0.368292056333E+02    0.19821E-08   -0.29066E-09  5932   0.434E-04    0.369E-05
RMM:   4    -0.368292056335E+02   -0.23977E-09   -0.17304E-10  3885   0.113E-04    0.104E-05
RMM:   5    -0.368292056334E+02    0.15575E-09   -0.17932E-11  3683   0.546E-05    0.550E-06
RMM:   6    -0.368292056334E+02    0.17394E-10   -0.13239E-11  3254   0.396E-05
   3 F= -.36829206E+02 E0= -.36829206E+02  d E =-.164260E-07
       N       E                     dE             d eps       ncg     rms          rms(c)
DAV:   1    -0.368292056326E+02    0.79081E-09    0.52855E-09  4676   0.432E-05    0.645E-07
RMM:   2    -0.368292056331E+02   -0.52296E-09   -0.37182E-13  1755   0.154E-05    0.400E-07
RMM:   3    -0.368292056331E+02   -0.24102E-10    0.23072E-13  1686   0.156E-05    0.408E-08
RMM:   4    -0.368292056331E+02   -0.39790E-11   -0.15364E-12  1609   0.150E-05    0.294E-08
RMM:   5    -0.368292056331E+02    0.18531E-10    0.26181E-13  1561   0.147E-05
   4 F= -.36829206E+02 E0= -.36829206E+02  d E =0.240902E-09
       N       E                     dE             d eps       ncg     rms          rms(c)
DAV:   1    -0.368292056326E+02    0.55581E-09    0.53002E-09  4432   0.181E-05    0.208E-07
RMM:   2    -0.368292056331E+02   -0.52648E-09    0.38118E-14  1309   0.713E-06    0.126E-07
RMM:   3    -0.368292056331E+02   -0.37517E-11   -0.63538E-13  1289   0.715E-06    0.887E-09
RMM:   4    -0.368292056331E+02    0.65938E-11   -0.91778E-14  1172   0.713E-06    0.668E-09
RMM:   5    -0.368292056331E+02    0.60254E-11   -0.79895E-14  1254   0.708E-06
   5 F= -.36829206E+02 E0= -.36829206E+02  d E =0.196678E-10
