gr                                      
           1
     4.401679    0.000000    0.000000
     0.000000    2.455421    0.000000
     0.000000    0.000000   19.507626
   C 
   4
Direct configuration=     1
   0.99938979  0.00000000  0.00000000
   0.16727688  0.50000000  0.00000000
   0.49938979  0.50000000  0.00000000
   0.66727688  0.00000000  0.00000000
Direct configuration=     2
   0.99939269  0.00000000 -0.00000000
   0.16727398  0.50000000  0.00000000
   0.49939269  0.50000000 -0.00000000
   0.66727398 -0.00000000  0.00000000
Direct configuration=     3
   0.99939042 -0.00000000 -0.00000000
   0.16727625  0.50000000  0.00000000
   0.49939042  0.50000000 -0.00000000
   0.66727625  0.00000000  0.00000000
Direct configuration=     4
   0.99939042 -0.00000000 -0.00000000
   0.16727624  0.50000000  0.00000000
   0.49939042  0.50000000 -0.00000000
   0.66727624  0.00000000  0.00000000
Direct configuration=     5
   0.99939042 -0.00000000 -0.00000000
   0.16727625  0.50000000  0.00000000
   0.49939042  0.50000000 -0.00000000
   0.66727625  0.00000000  0.00000000
