    4    4  400    1
  0.5270948E+02  0.4337574E-09  0.2460852E-09  0.1975224E-08  0.5000000E-15
  1.000000000000000E-004
  CAR 
 gr                                      
     16    247     12
 
  0.0000000E+00  0.0000000E+00  0.0000000E+00  0.1157407E-02
    1      -22.149606
    2      -17.166931
    3      -15.891038
    4      -10.278592
    5       -8.941665
    6       -5.922471
    7       -5.748851
    8       -5.248062
    9       -1.144480
   10        0.536335
   11        1.335701
   12        1.724923
 
  0.4166667E-01  0.0000000E+00  0.0000000E+00  0.2314815E-02
    1      -22.139656
    2      -17.301125
    3      -15.741750
    4      -10.266752
    5       -8.931929
    6       -5.966166
    7       -5.769891
    8       -5.309779
    9       -1.066921
   10        0.549809
   11        1.349363
   12        1.738754
 
  0.8333333E-01  0.0000000E+00  0.0000000E+00  0.2314815E-02
    1      -22.109810
    2      -17.598645
    3      -15.399028
    4      -10.231254
    5       -8.902771
    6       -6.095279
    7       -5.831888
    8       -5.481913
    9       -0.847421
   10        0.590235
   11        1.390343
   12        1.780246
 
  0.1250000E+00  0.0000000E+00  0.0000000E+00  0.2314815E-02
    1      -22.060089
    2      -17.947410
    3      -14.975191
    4      -10.172153
    5       -8.854344
    6       -6.304261
    7       -5.931659
    8       -5.734930
    9       -0.516003
   10        0.657627
   11        1.458628
   12        1.849404
 
  0.1666667E+00  0.0000000E+00  0.0000000E+00  0.2314815E-02
    1      -21.990527
    2      -18.306111
    3      -14.511960
    4      -10.089549
    5       -8.786909
    6       -6.584937
    7       -6.064435
    8       -6.038628
    9       -0.103699
   10        0.752000
   11        1.554193
   12        1.946229
 
  0.2083333E+00  0.0000000E+00  0.0000000E+00  0.2314815E-02
    1      -21.901173
    2      -18.660162
    3      -14.024510
    4       -9.983582
    5       -8.700842
    6       -6.927680
    7       -6.369804
    8       -6.224491
    9        0.365095
   10        0.873364
   11        1.677000
   12        2.070723
 
  0.2500000E+00  0.0000000E+00  0.0000000E+00  0.2314815E-02
    1      -21.792092
    2      -19.003425
    3      -13.519761
    4       -9.854442
    5       -8.596645
    6       -7.322477
    7       -6.712596
    8       -6.405738
    9        0.872909
   10        1.021713
   11        1.826988
   12        2.222888
 
  0.2916667E+00  0.0000000E+00  0.0000000E+00  0.2314815E-02
    1      -21.663366
    2      -19.332854
    3      -13.001762
    4       -9.702377
    5       -8.474966
    6       -7.759706
    7       -7.056514
    8       -6.602205
    9        1.197029
   10        1.407145
   11        2.004064
   12        2.402721
 
  0.3333333E+00  0.0000000E+00  0.0000000E+00  0.2314815E-02
    1      -21.515095
    2      -19.646725
    3      -12.473484
    4       -9.527700
    5       -8.336613
    6       -8.230586
    7       -7.394587
    8       -6.808345
    9        1.399279
   10        1.957969
   11        2.208072
   12        2.610218
 
  0.3750000E+00  0.0000000E+00  0.0000000E+00  0.2314815E-02
    1      -21.347399
    2      -19.943954
    3      -11.937543
    4       -9.330803
    5       -8.727367
    6       -8.182585
    7       -7.722080
    8       -7.019204
    9        1.628414
   10        2.438726
   11        2.516130
   12        2.845371
 
  0.4166667E+00  0.0000000E+00  0.0000000E+00  0.2314815E-02
    1      -21.160421
    2      -20.223803
    3      -11.396538
    4       -9.243346
    5       -9.112180
    6       -8.035690
    7       -8.014107
    8       -7.230471
    9        1.884366
   10        2.695408
   11        3.066543
   12        3.108233
 
  0.4583333E+00  0.0000000E+00  0.0000000E+00  0.2314815E-02
    1      -20.954335
    2      -20.485738
    3      -10.853255
    4       -9.772789
    5       -8.872453
    6       -8.333047
    7       -7.832665
    8       -7.438460
    9        2.167047
   10        2.812049
   11        2.976392
   12        3.398634
 
  0.5000000E+00  0.0000000E+00  0.0000000E+00  0.1157407E-02
    1      -20.729355
    2      -20.729355
    3      -10.310813
    4      -10.310813
    5       -8.612406
    6       -8.612406
    7       -7.640060
    8       -7.640060
    9        2.476333
   10        2.476333
   11        3.273908
   12        3.273908
 
  0.0000000E+00  0.2777778E-01  0.0000000E+00  0.2314815E-02
    1      -22.135839
    2      -17.155034
    3      -15.879325
    4      -10.262211
    5       -9.004319
    6       -5.950144
    7       -5.807056
    8       -5.231394
    9       -1.147486
   10        0.554998
   11        1.354573
   12        1.744029
 
  0.4166667E-01  0.2777778E-01  0.0000000E+00  0.4629630E-02
    1      -22.125889
    2      -17.289091
    3      -15.730220
    4      -10.250375
    5       -8.994569
    6       -5.995731
    7       -5.825571
    8       -5.293235
    9       -1.069910
   10        0.568472
   11        1.368234
   12        1.757860
 
  0.8333333E-01  0.2777778E-01  0.0000000E+00  0.4629630E-02
    1      -22.096048
    2      -17.586374
    3      -15.387877
    4      -10.214889
    5       -8.965371
    6       -6.127176
    7       -5.883456
    8       -5.465663
    9       -0.850441
   10        0.608898
   11        1.409211
   12        1.799352
 
  0.1250000E+00  0.2777778E-01  0.0000000E+00  0.4629630E-02
    1      -22.046334
    2      -17.934920
    3      -14.964502
    4      -10.155808
    5       -8.916873
    6       -6.335962
    7       -5.980790
    8       -5.718991
    9       -0.519255
   10        0.676292
   11        1.477493
   12        1.868510
 
  0.1666667E+00  0.2777778E-01  0.0000000E+00  0.4629630E-02
    1      -21.976783
    2      -18.293431
    3      -14.501809
    4      -10.073231
    5       -8.849331
    6       -6.614080
    7       -6.113010
    8       -6.022925
    9       -0.107477
   10        0.770668
   11        1.573053
   12        1.965336
 
  0.2083333E+00  0.2777778E-01  0.0000000E+00  0.4629630E-02
    1      -21.887444
    2      -18.647321
    3      -14.014989
    4       -9.967300
    5       -8.763115
    6       -6.952879
    7       -6.354245
    8       -6.273749
    9        0.360480
   10        0.892037
   11        1.695854
   12        2.089832
 
  0.2500000E+00  0.2777778E-01  0.0000000E+00  0.4629630E-02
    1      -21.778382
    2      -18.990444
    3      -13.510982
    4       -9.838205
    5       -8.658719
    6       -7.343177
    7       -6.697101
    8       -6.456340
    9        0.867164
   10        1.040392
   11        1.845836
   12        2.241998
 
  0.2916667E+00  0.2777778E-01  0.0000000E+00  0.4629630E-02
    1      -21.649678
    2      -19.319754
    3      -12.993857
    4       -9.686191
    5       -8.536776
    6       -7.775895
    7       -7.041023
    8       -6.654419
    9        1.215717
   10        1.400015
   11        2.022906
   12        2.421834
 
  0.3333333E+00  0.2777778E-01  0.0000000E+00  0.4629630E-02
    1      -21.501434
    2      -19.633520
    3      -12.466613
    4       -9.511573
    5       -8.398083
    6       -8.242554
    7       -7.379061
    8       -6.862205
    9        1.417976
   10        1.949273
   11        2.226912
   12        2.629335
 
  0.3750000E+00  0.2777778E-01  0.0000000E+00  0.4629630E-02
    1      -21.333769
    2      -19.930660
    3      -11.931898
    4       -9.314742
    5       -8.735546
    6       -8.243624
    7       -7.706493
    8       -7.074610
    9        1.647122
   10        2.457570
   11        2.505878
   12        2.864492
 
  0.4166667E+00  0.2777778E-01  0.0000000E+00  0.4629630E-02
    1      -21.146828
    2      -20.210431
    3      -11.392350
    4       -9.248212
    5       -9.096192
    6       -8.074601
    7       -8.020029
    8       -7.287258
    9        1.903088
   10        2.714267
   11        3.055732
   12        3.127295
 
  0.4583333E+00  0.2777778E-01  0.0000000E+00  0.4629630E-02
    1      -20.940786
    2      -20.472298
    3      -10.850797
    4       -9.774807
    5       -8.856543
    6       -8.317304
    7       -7.892482
    8       -7.496439
    9        2.185784
   10        2.830843
   11        2.995274
   12        3.417725
 
  0.5000000E+00  0.2777778E-01  0.0000000E+00  0.2314815E-02
    1      -20.715857
    2      -20.715857
    3      -10.310406
    4      -10.310406
    5       -8.596578
    6       -8.596578
    7       -7.699044
    8       -7.699044
    9        2.495093
   10        2.495093
   11        3.292598
   12        3.292598
 
  0.0000000E+00  0.5555556E-01  0.0000000E+00  0.2314815E-02
    1      -22.094546
    2      -17.119345
    3      -15.844330
    4      -10.213101
    5       -9.187229
    6       -6.032645
    7       -5.976939
    8       -5.181408
    9       -1.157321
   10        0.610987
   11        1.411180
   12        1.801347
 
  0.4166667E-01  0.5555556E-01  0.0000000E+00  0.4629630E-02
    1      -22.084601
    2      -17.253001
    3      -15.695772
    4      -10.201278
    5       -9.177435
    6       -6.092066
    7       -5.979768
    8       -5.243638
    9       -1.079687
   10        0.624461
   11        1.424839
   12        1.815177
 
  0.8333333E-01  0.5555556E-01  0.0000000E+00  0.4629630E-02
    1      -22.054773
    2      -17.549579
    3      -15.354570
    4      -10.165828
    5       -9.148099
    6       -6.232904
    7       -6.023017
    8       -5.416968
    9       -0.860306
   10        0.664887
   11        1.465809
   12        1.856670
 
  0.1250000E+00  0.5555556E-01  0.0000000E+00  0.4629630E-02
    1      -22.005082
    2      -17.897469
    3      -14.932594
    4      -10.106808
    5       -9.099364
    6       -6.440218
    7       -6.114035
    8       -5.671247
    9       -0.529826
   10        0.732284
   11        1.534079
   12        1.925829
 
  0.1666667E+00  0.5555556E-01  0.0000000E+00  0.4629630E-02
    1      -21.935565
    2      -18.255413
    3      -14.471544
    4      -10.024316
    5       -9.031468
    6       -6.709482
    7       -6.245851
    8       -5.975904
    9       -0.119651
   10        0.826666
   11        1.629624
   12        2.022657
 
  0.2083333E+00  0.5555556E-01  0.0000000E+00  0.4629630E-02
    1      -21.846270
    2      -18.608815
    3      -13.986655
    4       -9.918495
    5       -8.944759
    6       -7.035279
    7       -6.409862
    8       -6.307660
    9        0.345746
   10        0.948045
   11        1.752406
   12        2.147156
 
  0.2500000E+00  0.5555556E-01  0.0000000E+00  0.4629630E-02
    1      -21.737262
    2      -18.951520
    3      -13.484923
    4       -9.789532
    5       -8.839700
    6       -7.410926
    7       -6.650706
    8       -6.597659
    9        0.848971
   10        1.096415
   11        1.902368
   12        2.299327
 
  0.2916667E+00  0.5555556E-01  0.0000000E+00  0.4629630E-02
    1      -21.608627
    2      -19.280467
    3      -12.970491
    4       -9.637676
    5       -8.716889
    6       -7.829023
    7       -6.994639
    8       -6.801654
    9        1.271759
   10        1.377580
   11        2.079421
   12        2.479170
 
  0.3333333E+00  0.5555556E-01  0.0000000E+00  0.4629630E-02
    1      -21.460463
    2      -19.593921
    3      -12.446446
    4       -9.463237
    5       -8.577073
    6       -8.282060
    7       -7.332565
    8       -7.015307
    9        1.474042
   10        1.922016
   11        2.283417
   12        2.686679
 
  0.3750000E+00  0.5555556E-01  0.0000000E+00  0.4629630E-02
    1      -21.292893
    2      -19.890790
    3      -11.915540
    4       -9.266609
    5       -8.762888
    6       -8.421180
    7       -7.659811
    8       -7.233116
    9        1.703214
   10        2.473730
   11        2.514085
   12        2.921848
 
  0.4166667E+00  0.5555556E-01  0.0000000E+00  0.4629630E-02
    1      -21.106064
    2      -20.170327
    3      -11.380530
    4       -9.264972
    5       -9.048281
    6       -8.250350
    7       -7.973116
    8       -7.450519
    9        1.959209
   10        2.770829
   11        3.021041
   12        3.184701
 
  0.4583333E+00  0.5555556E-01  0.0000000E+00  0.4629630E-02
    1      -20.900152
    2      -20.431991
    3      -10.844391
    4       -9.782515
    5       -8.808871
    6       -8.270139
    7       -8.065975
    8       -7.663759
    9        2.241942
   10        2.887125
   11        3.051915
   12        3.476041
 
  0.5000000E+00  0.5555556E-01  0.0000000E+00  0.2314815E-02
    1      -20.675374
    2      -20.675374
    3      -10.310451
    4      -10.310451
    5       -8.549158
    6       -8.549158
    7       -7.869754
    8       -7.869754
    9        2.551298
   10        2.551298
   11        3.348557
   12        3.348557
 
  0.0000000E+00  0.8333333E-01  0.0000000E+00  0.2314815E-02
    1      -22.025762
    2      -17.059878
    3      -15.786512
    4      -10.131369
    5       -9.476652
    6       -6.245777
    7       -6.168438
    8       -5.098170
    9       -1.176434
   10        0.704305
   11        1.505501
   12        1.896878
 
  0.4166667E-01  0.8333333E-01  0.0000000E+00  0.4629630E-02
    1      -22.015825
    2      -17.192887
    3      -15.638853
    4      -10.119566
    5       -9.466768
    6       -6.306183
    7       -6.167309
    8       -5.161085
    9       -1.098682
   10        0.717777
   11        1.519155
   12        1.910708
 
  0.8333333E-01  0.8333333E-01  0.0000000E+00  0.4629630E-02
    1      -21.986020
    2      -17.488314
    3      -15.299568
    4      -10.084179
    5       -9.437158
    6       -6.445796
    7       -6.203356
    8       -5.336002
    9       -0.879425
   10        0.758200
   11        1.560113
   12        1.952201
 
  0.1250000E+00  0.8333333E-01  0.0000000E+00  0.4629630E-02
    1      -21.936369
    2      -17.835119
    3      -14.879985
    4      -10.025263
    5       -9.387944
    6       -6.643974
    7       -6.290912
    8       -5.591936
    9       -0.550145
   10        0.825593
   11        1.628361
   12        2.021360
 
  0.1666667E+00  0.8333333E-01  0.0000000E+00  0.4629630E-02
    1      -21.866907
    2      -18.192117
    3      -14.421773
    4       -9.942917
    5       -9.319337
    6       -6.895548
    7       -6.425305
    8       -5.897840
    9       -0.142732
   10        0.919975
   11        1.723876
   12        2.118188
 
  0.2083333E+00  0.8333333E-01  0.0000000E+00  0.4629630E-02
    1      -21.777685
    2      -18.544703
    3      -13.940243
    4       -9.837282
    5       -9.231640
    6       -7.197124
    7       -6.597522
    8       -6.230337
    9        0.318245
   10        1.041358
   11        1.846623
   12        2.242691
 
  0.2500000E+00  0.8333333E-01  0.0000000E+00  0.4629630E-02
    1      -21.668771
    2      -18.886705
    3      -13.442504
    4       -9.708549
    5       -9.125256
    6       -7.545171
    7       -6.797244
    8       -6.573696
    9        0.815495
   10        1.189740
   11        1.996547
   12        2.394868
 
  0.2916667E+00  0.8333333E-01  0.0000000E+00  0.4629630E-02
    1      -21.540248
    2      -19.215046
    3      -12.932832
    4       -9.556962
    5       -9.000704
    6       -7.935289
    7       -7.014683
    8       -6.917634
    9        1.336762
   10        1.365101
   11        2.173565
   12        2.574718
 
  0.3333333E+00  0.8333333E-01  0.0000000E+00  0.4629630E-02
    1      -21.392219
    2      -19.527976
    3      -12.414483
    4       -9.382833
    5       -8.858637
    6       -8.362076
    7       -7.255358
    8       -7.241583
    9        1.567406
   10        1.872789
   11        2.377540
   12        2.782238
 
  0.3750000E+00  0.8333333E-01  0.0000000E+00  0.4629630E-02
    1      -21.224808
    2      -19.824391
    3      -11.890411
    4       -9.186553
    5       -8.819491
    6       -8.699858
    7       -7.582273
    8       -7.471435
    9        1.796603
   10        2.415692
   11        2.608221
   12        3.017421
 
  0.4166667E+00  0.8333333E-01  0.0000000E+00  0.4629630E-02
    1      -21.038166
    2      -20.103536
    3      -11.363624
    4       -9.301356
    5       -8.968609
    6       -8.525361
    7       -7.895173
    8       -7.699252
    9        2.052625
   10        2.865050
   11        2.956496
   12        3.280259
 
  0.4583333E+00  0.8333333E-01  0.0000000E+00  0.4629630E-02
    1      -20.832472
    2      -20.364860
    3      -10.837389
    4       -9.801777
    5       -8.729611
    6       -8.336362
    7       -8.191760
    8       -7.921213
    9        2.335387
   10        2.980666
   11        3.146295
   12        3.461701
 
  0.5000000E+00  0.8333333E-01  0.0000000E+00  0.2314815E-02
    1      -20.607948
    2      -20.607948
    3      -10.315378
    4      -10.315378
    5       -8.470333
    6       -8.470333
    7       -8.134360
    8       -8.134360
    9        2.644781
   10        2.644781
   11        3.441254
   12        3.441255
 
  0.0000000E+00  0.1111111E+00  0.0000000E+00  0.2314815E-02
    1      -21.929549
    2      -16.976652
    3      -15.706738
    4      -10.017190
    5       -9.853497
    6       -6.596244
    7       -6.354978
    8       -4.981786
    9       -1.208894
   10        0.834954
   11        1.637497
   12        2.030624
 
  0.4166667E-01  0.1111111E+00  0.0000000E+00  0.4629630E-02
    1      -21.919622
    2      -17.108808
    3      -15.560315
    4      -10.005418
    5       -9.843453
    6       -6.644926
    7       -6.361665
    8       -5.045751
    9       -1.130927
   10        0.848422
   11        1.651143
   12        2.044454
 
  0.8333333E-01  0.1111111E+00  0.0000000E+00  0.4629630E-02
    1      -21.889850
    2      -17.402676
    3      -15.223754
    4       -9.970122
    5       -9.813352
    6       -6.773680
    7       -6.397419
    8       -5.223075
    9       -0.911770
   10        0.888833
   11        1.692079
   12        2.085945
 
  0.1250000E+00  0.1111111E+00  0.0000000E+00  0.4629630E-02
    1      -21.840255
    2      -17.747977
    3      -14.807666
    4       -9.911358
    5       -9.763286
    6       -6.960201
    7       -6.479789
    8       -5.481489
    9       -0.584195
   10        0.956209
   11        1.760292
   12        2.155101
 
  0.1666667E+00  0.1111111E+00  0.0000000E+00  0.4629630E-02
    1      -21.770871
    2      -18.103649
    3      -14.353676
    4       -9.829225
    5       -9.693410
    6       -7.192881
    7       -6.612628
    8       -5.789226
    9       -0.180819
   10        1.050572
   11        1.855759
   12        2.251928
 
  0.2083333E+00  0.1111111E+00  0.0000000E+00  0.4629630E-02
    1      -21.681753
    2      -18.455085
    3      -13.877214
    4       -9.723864
    5       -9.603943
    6       -7.466133
    7       -6.791216
    8       -6.122789
    9        0.273674
   10        1.171941
   11        1.978446
   12        2.376431
 
  0.2500000E+00  0.1111111E+00  0.0000000E+00  0.4629630E-02
    1      -21.572969
    2      -18.796094
    3      -13.385571
    4       -9.595465
    5       -9.495177
    6       -7.777491
    7       -7.005891
    8       -6.466580
    9        0.762157
   10        1.320315
   11        2.128303
   12        2.528610
 
  0.2916667E+00  0.1111111E+00  0.0000000E+00  0.4629630E-02
    1      -21.444603
    2      -19.123577
    3      -12.883261
    4       -9.444274
    5       -9.367478
    6       -8.125937
    7       -7.244649
    8       -6.810493
    9        1.272642
   10        1.495676
   11        2.305255
   12        2.708467
 
  0.3333333E+00  0.1111111E+00  0.0000000E+00  0.4629630E-02
    1      -21.296763
    2      -19.435766
    3      -12.373839
    4       -9.270601
    5       -9.221297
    6       -8.510312
    7       -7.495623
    8       -7.147892
    9        1.697985
   10        1.796237
   11        2.509183
   12        2.915996
 
  0.3750000E+00  0.1111111E+00  0.0000000E+00  0.4629630E-02
    1      -21.129577
    2      -19.731539
    3      -11.860642
    4       -9.074832
    5       -9.057182
    6       -8.928089
    7       -7.749004
    8       -7.474299
    9        1.927188
   10        2.325718
   11        2.739870
   12        3.151192
 
  0.4166667E+00  0.1111111E+00  0.0000000E+00  0.4629630E-02
    1      -20.943197
    2      -20.010129
    3      -11.347152
    4       -9.375090
    5       -8.875794
    6       -8.857452
    7       -7.997759
    8       -7.786590
    9        2.183213
   10        2.854186
   11        2.996829
   12        3.414047
 
  0.4583333E+00  0.1111111E+00  0.0000000E+00  0.4629630E-02
    1      -20.737813
    2      -20.270974
    3      -10.837218
    4       -9.846010
    5       -8.677945
    6       -8.619065
    7       -8.237287
    8       -8.082520
    9        2.465973
   10        3.111239
   11        3.278375
   12        3.369240
 
  0.5000000E+00  0.1111111E+00  0.0000000E+00  0.2314815E-02
    1      -20.513647
    2      -20.513647
    3      -10.335196
    4      -10.335196
    5       -8.464658
    6       -8.464658
    7       -8.360431
    8       -8.360431
    9        2.775361
   10        2.775361
   11        3.567925
   12        3.567925
 
  0.0000000E+00  0.1388889E+00  0.0000000E+00  0.2314815E-02
    1      -21.805993
    2      -16.869697
    3      -15.606467
    4      -10.296774
    5       -9.870822
    6       -7.009974
    7       -6.588783
    8       -4.832409
    9       -1.260309
   10        1.002929
   11        1.807109
   12        2.202587
 
  0.4166667E-01  0.1388889E+00  0.0000000E+00  0.4629630E-02
    1      -21.796081
    2      -17.000854
    3      -15.461600
    4      -10.286456
    5       -9.859091
    6       -7.056461
    7       -6.593038
    8       -4.897903
    9       -1.181947
   10        1.016388
   11        1.820744
   12        2.216416
 
  0.8333333E-01  0.1388889E+00  0.0000000E+00  0.4629630E-02
    1      -21.766351
    2      -17.292814
    3      -15.128644
    4      -10.255515
    5       -9.823919
    6       -7.181969
    7       -6.618751
    8       -5.078687
    9       -0.962731
   10        1.056776
   11        1.861645
   12        2.257903
 
  0.1250000E+00  0.1388889E+00  0.0000000E+00  0.4629630E-02
    1      -21.716826
    2      -17.636209
    3      -14.717376
    4      -10.203982
    5       -9.765362
    6       -7.363723
    7       -6.685583
    8       -5.340591
    9       -0.637338
   10        1.124114
   11        1.929800
   12        2.327053
 
  0.1666667E+00  0.1388889E+00  0.0000000E+00  0.4629630E-02
    1      -21.647545
    2      -17.990173
    3      -14.269366
    4      -10.131906
    5       -9.683519
    6       -7.586257
    7       -6.803537
    8       -5.650847
    9       -0.239381
   10        1.218432
   11        2.025187
   12        2.423873
 
  0.2083333E+00  0.1388889E+00  0.0000000E+00  0.4629630E-02
    1      -21.558560
    2      -18.340115
    3      -13.800232
    4      -10.039349
    5       -9.578532
    6       -7.840705
    7       -6.973611
    8       -5.985826
    9        0.206343
   10        1.339754
   11        2.147774
   12        2.548370
 
  0.2500000E+00  0.1388889E+00  0.0000000E+00  0.4629630E-02
    1      -21.449943
    2      -18.679830
    3      -13.317579
    4       -9.926373
    5       -9.450592
    6       -8.122466
    7       -7.190415
    8       -6.330144
    9        0.682975
   10        1.488087
   11        2.297514
   12        2.700546
 
  0.2916667E+00  0.1388889E+00  0.0000000E+00  0.4629630E-02
    1      -21.321782
    2      -19.006193
    3      -12.826350
    4       -9.793027
    5       -9.299942
    6       -8.430083
    7       -7.443938
    8       -6.673962
    9        1.178906
   10        1.663414
   11        2.474342
   12        2.880404
 
  0.3333333E+00  0.1388889E+00  0.0000000E+00  0.4629630E-02
    1      -21.174187
    2      -19.317414
    3      -12.330671
    4       -9.639330
    5       -9.126892
    6       -8.764452
    7       -7.721192
    8       -7.010863
    9        1.685682
   10        1.865695
   11        2.678160
   12        3.087938
 
  0.3750000E+00  0.1388889E+00  0.0000000E+00  0.4629630E-02
    1      -21.007290
    2      -19.612350
    3      -11.834619
    4       -9.465252
    5       -9.127588
    6       -8.931827
    7       -8.008227
    8       -7.336529
    9        2.094869
   10        2.196676
   11        2.908807
   12        3.323144
 
  0.4166667E+00  0.1388889E+00  0.0000000E+00  0.4629630E-02
    1      -20.821254
    2      -19.890217
    3      -11.342618
    4       -9.520822
    5       -9.270712
    6       -8.715224
    7       -8.292528
    8       -7.647950
    9        2.350860
   10        2.706239
   11        3.165929
   12        3.586011
 
  0.4583333E+00  0.1388889E+00  0.0000000E+00  0.4629630E-02
    1      -20.616269
    2      -20.150437
    3      -10.859647
    4       -9.943221
    5       -9.055627
    6       -8.564933
    7       -8.477680
    8       -7.942957
    9        2.633572
   10        3.208613
   11        3.278676
   12        3.448076
 
  0.5000000E+00  0.1388889E+00  0.0000000E+00  0.2314815E-02
    1      -20.392570
    2      -20.392570
    3      -10.391249
    4      -10.391249
    5       -8.820105
    6       -8.820105
    7       -8.219942
    8       -8.219942
    9        2.942891
   10        2.942891
   11        3.668146
   12        3.668174
 
  0.0000000E+00  0.1666667E+00  0.0000000E+00  0.2314815E-02
    1      -21.655211
    2      -16.739053
    3      -15.488143
    4      -10.785807
    5       -9.692606
    6       -7.469975
    7       -6.865540
    8       -4.650241
    9       -1.337589
   10        1.208212
   11        2.014254
   12        2.412769
 
  0.4166667E-01  0.1666667E+00  0.0000000E+00  0.4629630E-02
    1      -21.645316
    2      -16.869156
    3      -15.345144
    4      -10.775020
    5       -9.680930
    6       -7.516688
    7       -6.864466
    8       -4.717940
    9       -1.258487
   10        1.221659
   11        2.027871
   12        2.426595
 
  0.8333333E-01  0.1666667E+00  0.0000000E+00  0.4629630E-02
    1      -21.615639
    2      -17.158951
    3      -15.016845
    4      -10.742629
    5       -9.645921
    6       -7.643201
    7       -6.874417
    8       -4.903617
    9       -1.038764
   10        1.262009
   11        2.068716
   12        2.468075
 
  0.1250000E+00  0.1666667E+00  0.0000000E+00  0.4629630E-02
    1      -21.566202
    2      -17.500062
    3      -14.612175
    4      -10.688548
    5       -9.587636
    6       -7.825378
    7       -6.917976
    8       -5.170309
    9       -0.715882
   10        1.329286
   11        2.136776
   12        2.537214
 
  0.1666667E+00  0.1666667E+00  0.0000000E+00  0.4629630E-02
    1      -21.497045
    2      -17.851928
    3      -14.172661
    4      -10.612607
    5       -9.506175
    6       -8.045176
    7       -7.010010
    8       -5.483897
    9       -0.324772
   10        1.423525
   11        2.232029
   12        2.634019
 
  0.2083333E+00  0.1666667E+00  0.0000000E+00  0.4629630E-02
    1      -21.408223
    2      -18.200016
    3      -13.714266
    4      -10.514531
    5       -9.401681
    6       -8.291387
    7       -7.156444
    8       -5.820659
    9        0.109736
   10        1.544758
   11        2.354439
   12        2.758500
 
  0.2500000E+00  0.1666667E+00  0.0000000E+00  0.4629630E-02
    1      -21.299812
    2      -18.538115
    3      -13.245185
    4      -10.393883
    5       -9.274345
    6       -8.557251
    7       -7.356483
    8       -6.165555
    9        0.571236
   10        1.693000
   11        2.503961
   12        2.910663
 
  0.2916667E+00  0.1666667E+00  0.0000000E+00  0.4629630E-02
    1      -21.171903
    2      -18.863079
    3      -12.771214
    4      -10.250003
    5       -9.124411
    6       -8.839121
    7       -7.604250
    8       -6.509130
    9        1.048677
   10        1.868243
   11        2.680531
   12        3.090512
 
  0.3333333E+00  0.1666667E+00  0.0000000E+00  0.4629630E-02
    1      -21.024611
    2      -19.173090
    3      -12.297630
    4      -10.081931
    5       -9.135963
    6       -8.952188
    7       -7.889964
    8       -6.845272
    9        1.534173
   10        2.070448
   11        2.884070
   12        3.298044
 
  0.3750000E+00  0.1666667E+00  0.0000000E+00  0.4629630E-02
    1      -20.858074
    2      -19.466982
    3      -11.829993
    4       -9.888369
    5       -9.449184
    6       -8.758057
    7       -8.200939
    8       -7.169878
    9        2.021709
   10        2.299550
   11        3.114467
   12        3.533252
 
  0.4166667E+00  0.1666667E+00  0.0000000E+00  0.4629630E-02
    1      -20.672461
    2      -19.743947
    3      -11.374427
    4       -9.782268
    5       -9.667790
    6       -8.542493
    7       -8.522687
    8       -7.480086
    9        2.506408
   10        2.555459
   11        3.371572
   12        3.796133
 
  0.4583333E+00  0.1666667E+00  0.0000000E+00  0.4629630E-02
    1      -20.467973
    2      -20.003390
    3      -10.937383
    4      -10.139650
    5       -9.418937
    6       -8.840544
    7       -8.306080
    8       -7.773824
    9        2.838068
   10        2.984099
   11        3.482852
   12        3.654972
 
  0.5000000E+00  0.1666667E+00  0.0000000E+00  0.2314815E-02
    1      -20.244852
    2      -20.244852
    3      -10.524638
    4      -10.524638
    5       -9.142023
    6       -9.142023
    7       -8.049549
    8       -8.049549
    9        3.147250
   10        3.147250
   11        3.450991
   12        3.451005
 