 running on    8 total cores
 distrk:  each k-point on    8 cores,    1 groups
 distr:  one band on    2 cores,    4 groups
 using from now: INCAR     
 vasp.5.3.5 31Mar14 (build Mar 02 2015 18:14:16) complex                        
  
 POSCAR found type information on POSCAR  C 
 POSCAR found :  1 types and       4 ions
 LDA part: xc-table for Pade appr. of Perdew
 POSCAR, INCAR and KPOINTS ok, starting setup
 WARNING: small aliasing (wrap around) errors must be expected
 FFT: planning ...
 WAVECAR not read
 entering main loop
       N       E                     dE             d eps       ncg     rms          rms(c)
DAV:   1     0.187747713665E+03    0.18775E+03   -0.10590E+04  5928   0.274E+03
DAV:   2    -0.939767638094E+01   -0.19715E+03   -0.17347E+03 10396   0.261E+02
DAV:   3    -0.382598773923E+02   -0.28862E+02   -0.28284E+02  7436   0.119E+02    0.720E+00
RMM:   4    -0.376439409351E+02    0.61594E+00   -0.92355E+00  5928   0.260E+01    0.417E+00
RMM:   5    -0.369112266323E+02    0.73271E+00   -0.27306E+00  5929   0.113E+01    0.719E-01
RMM:   6    -0.369124844563E+02   -0.12578E-02   -0.79159E-02  6356   0.200E+00    0.514E-01
RMM:   7    -0.369034420170E+02    0.90424E-02   -0.32777E-02  5940   0.157E+00    0.338E-01
RMM:   8    -0.368981209474E+02    0.53211E-02   -0.67803E-03  5929   0.548E-01    0.139E-01
RMM:   9    -0.368978118521E+02    0.30910E-03   -0.20991E-02  5928   0.859E-01    0.159E-01
RMM:  10    -0.368976377621E+02    0.17409E-03   -0.23889E-03  5928   0.353E-01    0.279E-02
RMM:  11    -0.369000793774E+02   -0.24416E-02   -0.76019E-04  5931   0.182E-01    0.449E-02
RMM:  12    -0.369005339073E+02   -0.45453E-03   -0.20954E-04  5940   0.960E-02    0.593E-03
RMM:  13    -0.369007958850E+02   -0.26198E-03   -0.53397E-05  6014   0.405E-02    0.362E-03
RMM:  14    -0.369008779081E+02   -0.82023E-04   -0.10049E-05  5973   0.162E-02    0.126E-03
RMM:  15    -0.369008897786E+02   -0.11871E-04   -0.18256E-06  5982   0.751E-03    0.168E-03
RMM:  16    -0.369009018931E+02   -0.12115E-04   -0.12813E-06  5928   0.741E-03    0.117E-03
RMM:  17    -0.369009071857E+02   -0.52926E-05   -0.10330E-07  6041   0.198E-03    0.656E-04
RMM:  18    -0.369009082555E+02   -0.10698E-05   -0.54328E-08  5930   0.179E-03    0.116E-04
WARNING in EDDRMM: call to ZHEGV failed, returncode =   6  3  1
WARNING in EDDRMM: call to ZHEGV failed, returncode =   6  3  1
WARNING in EDDRMM: call to ZHEGV failed, returncode =   6  3  1
RMM:  19    -0.369009090297E+02   -0.77416E-06   -0.10310E-08  6069   0.494E-04    0.167E-05
RMM:  20    -0.369009090860E+02   -0.56300E-07   -0.88571E-10  4508   0.144E-04    0.240E-05
RMM:  21    -0.369009091025E+02   -0.16477E-07   -0.23161E-10  4371   0.887E-05    0.693E-06
RMM:  22    -0.369009091030E+02   -0.49295E-09   -0.21209E-11  3904   0.513E-05    0.237E-06
RMM:  23    -0.369009091033E+02   -0.33185E-09   -0.14711E-11  3495   0.377E-05    0.184E-06
WARNING in EDDRMM: call to ZHEGV failed, returncode =   6  3  1
RMM:  24    -0.369009091035E+02   -0.23385E-09   -0.52172E-12  3039   0.284E-05    0.585E-07
RMM:  25    -0.369009091032E+02    0.31559E-09   -0.67153E-12  2764   0.249E-05    0.282E-07
RMM:  26    -0.369009091037E+02   -0.45895E-09   -0.18611E-12  2537   0.219E-05    0.221E-07
RMM:  27    -0.369009091036E+02    0.10789E-09   -0.28132E-12  2387   0.203E-05    0.879E-08
RMM:  28    -0.369009091037E+02   -0.99362E-10   -0.43046E-13  2240   0.189E-05
   1 F= -.36900909E+02 E0= -.36900907E+02  d E =-.369009E+02
 BRION: g(F)=  0.346E-07 g(S)=  0.000E+00
 bond charge predicted
       N       E                     dE             d eps       ncg     rms          rms(c)
DAV:   1    -0.369009090522E+02    0.51343E-07   -0.46187E-06  6288   0.202E-02    0.413E-04
RMM:   2    -0.369009090570E+02   -0.48021E-08   -0.74049E-08  5959   0.241E-03    0.298E-04
RMM:   3    -0.369009090565E+02    0.50989E-09   -0.12712E-08  5964   0.907E-04    0.790E-05
WARNING in EDDRMM: call to ZHEGV failed, returncode =   6  3  1
RMM:   4    -0.369009090558E+02    0.74783E-09   -0.82790E-10  5666   0.231E-04    0.224E-05
RMM:   5    -0.369009090564E+02   -0.67200E-09   -0.42409E-11  3785   0.635E-05    0.878E-06
RMM:   6    -0.369009090561E+02    0.37323E-09   -0.12603E-11  3365   0.447E-05    0.187E-06
RMM:   7    -0.369009090562E+02   -0.11016E-09   -0.85098E-12  3256   0.364E-05    0.510E-07
RMM:   8    -0.369009090561E+02    0.24443E-10   -0.19684E-12  2931   0.303E-05
   2 F= -.36900909E+02 E0= -.36900907E+02  d E =0.475131E-07
 BRION: g(F)=  0.523E-06 g(S)=  0.000E+00 retain N=  1 mean eig= 0.20
 eig:   0.204
 bond charge predicted
       N       E                     dE             d eps       ncg     rms          rms(c)
DAV:   1    -0.369009091089E+02   -0.52747E-07   -0.29185E-06  6580   0.160E-02    0.330E-04
RMM:   2    -0.369009091101E+02   -0.12114E-08   -0.45517E-08  5958   0.191E-03    0.237E-04
RMM:   3    -0.369009091074E+02    0.27010E-08   -0.79787E-09  5956   0.720E-04    0.612E-05
RMM:   4    -0.369009091079E+02   -0.50022E-09   -0.49993E-10  5088   0.183E-04    0.176E-05
RMM:   5    -0.369009091077E+02    0.19486E-09   -0.27524E-11  3725   0.594E-05    0.762E-06
RMM:   6    -0.369009091076E+02    0.10505E-09   -0.14146E-11  3291   0.421E-05    0.173E-06
WARNING in EDDRMM: call to ZHEGV failed, returncode =   6  3  1
RMM:   7    -0.369009091075E+02    0.13711E-09   -0.65050E-12  3089   0.341E-05    0.655E-07
RMM:   8    -0.369009091074E+02    0.10323E-09   -0.30030E-12  2828   0.296E-05    0.982E-08
RMM:   9    -0.369009091077E+02   -0.31901E-09   -0.23531E-12  2566   0.263E-05    0.216E-07
RMM:  10    -0.369009091075E+02    0.17337E-09   -0.28991E-12  2380   0.244E-05    0.840E-08
RMM:  11    -0.369009091077E+02   -0.12290E-09   -0.89015E-13  2215   0.227E-05    0.222E-08
RMM:  12    -0.369009091073E+02    0.31469E-09   -0.23564E-12  2100   0.213E-05    0.434E-08
RMM:  13    -0.369009091075E+02   -0.10891E-09   -0.87584E-15  2010   0.204E-05    0.196E-08
RMM:  14    -0.369009091075E+02   -0.90949E-10   -0.14218E-12  1925   0.198E-05
   3 F= -.36900909E+02 E0= -.36900907E+02  d E =-.513958E-07
 BRION: g(F)=  0.470E-13 g(S)=  0.000E+00 retain N=  1 mean eig= 0.20
 eig:   0.205
 reached required accuracy - stopping structural energy minimisation
