gr                                      
           1
     4.337574    0.000000    0.000000
     0.000000    2.460852    0.000000
     0.000000    0.000000   19.752240
   C 
   4
Direct configuration=     1
   0.99964215  0.00000000  0.00000000
   0.16702452  0.50000000  0.00000000
   0.49964215  0.50000000  0.00000000
   0.66702452  0.00000000  0.00000000
Direct configuration=     2
   0.99964686  0.00000000 -0.00000000
   0.16701981  0.50000000  0.00000000
   0.49964686  0.50000000 -0.00000000
   0.66701981 -0.00000000  0.00000000
Direct configuration=     3
   0.99964311  0.00000000 -0.00000000
   0.16702355  0.50000000  0.00000000
   0.49964311  0.50000000 -0.00000000
   0.66702355  0.00000000  0.00000000
