    4    4  400    1
  0.5270948E+02  0.4251937E-09  0.2541075E-09  0.1951391E-08  0.5000000E-15
  1.000000000000000E-004
  CAR 
 gr                                      
     16    247     12
 
  0.0000000E+00  0.0000000E+00  0.0000000E+00  0.1157407E-02
    1      -22.048196
    2      -16.643839
    3      -15.845325
    4      -10.200347
    5       -9.528240
    6       -6.023440
    7       -5.739242
    8       -4.865105
    9       -1.160039
   10        0.548841
   11        1.346331
   12        1.741889
 
  0.4166667E-01  0.0000000E+00  0.0000000E+00  0.2314815E-02
    1      -22.037801
    2      -16.847342
    3      -15.626870
    4      -10.188026
    5       -9.517784
    6       -6.047414
    7       -5.778916
    8       -4.936058
    9       -1.074532
   10        0.562922
   11        1.360548
   12        1.756288
 
  0.8333333E-01  0.0000000E+00  0.0000000E+00  0.2314815E-02
    1      -22.006621
    2      -17.219673
    3      -15.209775
    4      -10.151083
    5       -9.486466
    6       -6.117938
    7       -5.896540
    8       -5.131226
    9       -0.835876
   10        0.605160
   11        1.403194
   12        1.799485
 
  0.1250000E+00  0.0000000E+00  0.0000000E+00  0.2314815E-02
    1      -21.954676
    2      -17.615546
    3      -14.739614
    4      -10.089573
    5       -9.434435
    6       -6.231076
    7       -6.088119
    8       -5.412585
    9       -0.482632
   10        0.675550
   11        1.474259
   12        1.871479
 
  0.1666667E+00  0.0000000E+00  0.0000000E+00  0.2314815E-02
    1      -21.882000
    2      -18.007046
    3      -14.244788
    4      -10.003595
    5       -9.361947
    6       -6.381010
    7       -6.347590
    8       -5.744365
    9       -0.051471
   10        0.774082
   11        1.573724
   12        1.972270
 
  0.2083333E+00  0.0000000E+00  0.0000000E+00  0.2314815E-02
    1      -21.788646
    2      -18.386522
    3      -13.733651
    4       -9.893288
    5       -9.269371
    6       -6.667534
    7       -6.560868
    8       -6.101263
    9        0.431047
   10        0.900737
   11        1.701559
   12        2.101854
 
  0.2500000E+00  0.0000000E+00  0.0000000E+00  0.2314815E-02
    1      -21.674674
    2      -18.750936
    3      -13.210165
    4       -9.758839
    5       -9.157202
    6       -7.039889
    7       -6.763496
    8       -6.467068
    9        0.947082
   10        1.055492
   11        1.857722
   12        2.260228
 
  0.2916667E+00  0.0000000E+00  0.0000000E+00  0.2314815E-02
    1      -21.540167
    2      -19.098738
    3      -12.677056
    4       -9.600490
    5       -9.026076
    6       -7.456531
    7       -6.982026
    8       -6.831539
    9        1.238312
   10        1.484369
   11        2.042153
   12        2.447387
 
  0.3333333E+00  0.0000000E+00  0.0000000E+00  0.2314815E-02
    1      -21.385222
    2      -19.428988
    3      -12.136720
    4       -9.418547
    5       -8.876796
    6       -7.909689
    7       -7.210212
    8       -7.188066
    9        1.449148
   10        2.033820
   11        2.254762
   12        2.663318
 
  0.3750000E+00  0.0000000E+00  0.0000000E+00  0.2314815E-02
    1      -21.209953
    2      -19.741040
    3      -11.591573
    4       -9.213392
    5       -8.710357
    6       -8.392197
    7       -7.532231
    8       -7.442588
    9        1.687936
   10        2.495399
   11        2.587821
   12        2.908000
 
  0.4166667E+00  0.0000000E+00  0.0000000E+00  0.2314815E-02
    1      -21.014495
    2      -20.034414
    3      -11.044225
    4       -8.985496
    5       -8.897604
    6       -8.527984
    7       -7.860975
    8       -7.674479
    9        1.954580
   10        2.763781
   11        3.137622
   12        3.181386
 
  0.4583333E+00  0.0000000E+00  0.0000000E+00  0.2314815E-02
    1      -20.799007
    2      -20.308728
    3      -10.497591
    4       -9.420202
    5       -8.735454
    6       -8.331174
    7       -8.172108
    8       -7.901958
    9        2.248933
   10        2.919350
   11        3.059163
   12        3.483462
 
  0.5000000E+00  0.0000000E+00  0.0000000E+00  0.1157407E-02
    1      -20.563678
    2      -20.563678
    3       -9.954984
    4       -9.954984
    5       -8.464009
    6       -8.464009
    7       -8.121757
    8       -8.121757
    9        2.570728
   10        2.570728
   11        3.378116
   12        3.378116
 
  0.0000000E+00  0.2777778E-01  0.0000000E+00  0.2314815E-02
    1      -22.035307
    2      -16.632697
    3      -15.835195
    4      -10.185070
    5       -9.585790
    6       -6.076506
    7       -5.771724
    8       -4.849518
    9       -1.166603
   10        0.566262
   11        1.364012
   12        1.759792
 
  0.4166667E-01  0.2777778E-01  0.0000000E+00  0.4629630E-02
    1      -22.024912
    2      -16.836123
    3      -15.616881
    4      -10.172754
    5       -9.575300
    6       -6.103265
    7       -5.807869
    8       -4.920656
    9       -1.081044
   10        0.580344
   11        1.378228
   12        1.774192
 
  0.8333333E-01  0.2777778E-01  0.0000000E+00  0.4629630E-02
    1      -21.993736
    2      -17.208264
    3      -15.200170
    4      -10.135824
    5       -9.543878
    6       -6.182937
    7       -5.914251
    8       -5.116235
    9       -0.842380
   10        0.622587
   11        1.420870
   12        1.817389
 
  0.1250000E+00  0.2777778E-01  0.0000000E+00  0.4629630E-02
    1      -21.941798
    2      -17.603935
    3      -14.730545
    4      -10.074337
    5       -9.491667
    6       -6.315210
    7       -6.083600
    8       -5.397996
    9       -0.489408
   10        0.692986
   11        1.491930
   12        1.889385
 
  0.1666667E+00  0.2777778E-01  0.0000000E+00  0.4629630E-02
    1      -21.869134
    2      -17.995250
    3      -14.236391
    4       -9.988391
    5       -9.418911
    6       -6.505589
    7       -6.298978
    8       -5.730053
    9       -0.058912
   10        0.791528
   11        1.591386
   12        1.990178
 
  0.2083333E+00  0.2777778E-01  0.0000000E+00  0.4629630E-02
    1      -21.775793
    2      -18.374561
    3      -13.726077
    4       -9.878126
    5       -9.325964
    6       -6.768920
    7       -6.531660
    8       -6.087099
    9        0.422541
   10        0.918197
   11        1.719210
   12        2.119765
 
  0.2500000E+00  0.2777778E-01  0.0000000E+00  0.4629630E-02
    1      -21.661838
    2      -18.738833
    3      -13.203596
    4       -9.743728
    5       -9.213299
    6       -7.107202
    7       -6.764732
    8       -6.452950
    9        0.937145
   10        1.072966
   11        1.875361
   12        2.278143
 
  0.2916667E+00  0.2777778E-01  0.0000000E+00  0.4629630E-02
    1      -21.527353
    2      -19.086512
    3      -12.671712
    4       -9.585440
    5       -9.081523
    6       -7.503651
    7       -7.000165
    8       -6.817398
    9        1.255801
   10        1.472685
   11        2.059778
   12        2.465306
 
  0.3333333E+00  0.2777778E-01  0.0000000E+00  0.4629630E-02
    1      -21.372433
    2      -19.416656
    3      -12.132877
    4       -9.403567
    5       -8.931400
    6       -7.943412
    7       -7.238873
    8       -7.173859
    9        1.466653
   10        2.020134
   11        2.272373
   12        2.681243
 
  0.3750000E+00  0.2777778E-01  0.0000000E+00  0.4629630E-02
    1      -21.197195
    2      -19.728617
    3      -11.589575
    4       -9.198489
    5       -8.763875
    6       -8.416255
    7       -7.517933
    8       -7.478457
    9        1.705461
   10        2.513002
   11        2.572001
   12        2.925934
 
  0.4166667E+00  0.2777778E-01  0.0000000E+00  0.4629630E-02
    1      -21.001773
    2      -20.021911
    3      -11.044505
    4       -8.970682
    5       -8.914359
    6       -8.580105
    7       -7.846574
    8       -7.715578
    9        1.972130
   10        2.781386
   11        3.120026
   12        3.199338
 
  0.4583333E+00  0.2777778E-01  0.0000000E+00  0.4629630E-02
    1      -20.786328
    2      -20.296158
    3      -10.500701
    4       -9.431298
    5       -8.720735
    6       -8.381502
    7       -8.157598
    8       -7.946979
    9        2.266521
   10        2.937190
   11        3.076803
   12        3.501406
 
  0.5000000E+00  0.2777778E-01  0.0000000E+00  0.2314815E-02
    1      -20.551050
    2      -20.551050
    3       -9.961630
    4       -9.961630
    5       -8.449393
    6       -8.449393
    7       -8.169773
    8       -8.169773
    9        2.588389
   10        2.588389
   11        3.395809
   12        3.395809
 
  0.0000000E+00  0.5555556E-01  0.0000000E+00  0.2314815E-02
    1      -21.996647
    2      -16.599274
    3      -15.805026
    4      -10.139270
    5       -9.753664
    6       -6.231585
    7       -5.868085
    8       -4.802775
    9       -1.187065
   10        0.618534
   11        1.417048
   12        1.813503
 
  0.4166667E-01  0.5555556E-01  0.0000000E+00  0.4629630E-02
    1      -21.986257
    2      -16.802492
    3      -15.587120
    4      -10.126968
    5       -9.743065
    6       -6.264479
    7       -5.895934
    8       -4.874487
    9       -1.101340
   10        0.632621
   11        1.431260
   12        1.827903
 
  0.8333333E-01  0.5555556E-01  0.0000000E+00  0.4629630E-02
    1      -21.955094
    2      -17.174076
    3      -15.171571
    4      -10.090080
    5       -9.711307
    6       -6.360933
    7       -5.979428
    8       -5.071335
    9       -0.862632
   10        0.674877
   11        1.473892
   12        1.871104
 
  0.1250000E+00  0.5555556E-01  0.0000000E+00  0.4629630E-02
    1      -21.903178
    2      -17.569138
    3      -14.703592
    4      -10.028663
    5       -9.658515
    6       -6.515742
    7       -6.117184
    8       -5.354325
    9       -0.510474
   10        0.745296
   11        1.544932
   12        1.943104
 
  0.1666667E+00  0.5555556E-01  0.0000000E+00  0.4629630E-02
    1      -21.830545
    2      -17.959893
    3      -14.211515
    4       -9.942815
    5       -9.584898
    6       -6.723766
    7       -6.304174
    8       -5.687229
    9       -0.081997
   10        0.843866
   11        1.644362
   12        2.043902
 
  0.2083333E+00  0.5555556E-01  0.0000000E+00  0.4629630E-02
    1      -21.737246
    2      -18.338709
    3      -13.703758
    4       -9.832675
    5       -9.490754
    6       -6.982250
    7       -6.530472
    8       -6.044717
    9        0.396219
   10        0.970567
   11        1.772153
   12        2.173496
 
  0.2500000E+00  0.5555556E-01  0.0000000E+00  0.4629630E-02
    1      -21.623344
    2      -18.702551
    3      -13.184410
    4       -9.698433
    5       -9.376484
    6       -7.290869
    7       -6.782390
    8       -6.410702
    9        0.906478
   10        1.125374
   11        1.928264
   12        2.331883
 
  0.2916667E+00  0.5555556E-01  0.0000000E+00  0.4629630E-02
    1      -21.488924
    2      -19.049858
    3      -12.656372
    4       -9.540328
    5       -9.242594
    6       -7.649047
    7       -7.046238
    8       -6.775075
    9        1.308248
   10        1.436711
   11        2.112636
   12        2.519058
 
  0.3333333E+00  0.5555556E-01  0.0000000E+00  0.4629630E-02
    1      -21.334082
    2      -19.379681
    3      -12.122273
    4       -9.358668
    5       -9.089715
    6       -8.053090
    7       -7.312013
    8       -7.131330
    9        1.519144
   10        1.978073
   11        2.325187
   12        2.735011
 
  0.3750000E+00  0.5555556E-01  0.0000000E+00  0.4629630E-02
    1      -21.158937
    2      -19.691365
    3      -11.584835
    4       -9.153831
    5       -8.918612
    6       -8.496261
    7       -7.573857
    8       -7.475123
    9        1.758000
   10        2.523391
   11        2.565781
   12        2.979726
 
  0.4166667E+00  0.5555556E-01  0.0000000E+00  0.4629630E-02
    1      -20.963624
    2      -19.984422
    3      -11.047065
    4       -8.970744
    5       -8.926291
    6       -8.730207
    7       -7.828341
    8       -7.803446
    9        2.024731
   10        2.834169
   11        3.065534
   12        3.253173
 
  0.4583333E+00  0.5555556E-01  0.0000000E+00  0.4629630E-02
    1      -20.748308
    2      -20.258464
    3      -10.512402
    4       -9.469112
    5       -8.676637
    6       -8.525591
    7       -8.114140
    8       -8.073060
    9        2.319214
   10        2.990444
   11        3.129691
   12        3.555300
 
  0.5000000E+00  0.5555556E-01  0.0000000E+00  0.2314815E-02
    1      -20.513180
    2      -20.513180
    3       -9.984849
    4       -9.984849
    5       -8.405607
    6       -8.405607
    7       -8.306046
    8       -8.306046
    9        2.641250
   10        2.641250
   11        3.448879
   12        3.448880
 
  0.0000000E+00  0.8333333E-01  0.0000000E+00  0.2314815E-02
    1      -21.932256
    2      -16.543584
    3      -15.755527
    4      -10.063043
    5      -10.018804
    6       -6.477522
    7       -6.025193
    8       -4.724934
    9       -1.223716
   10        0.705687
   11        1.505418
   12        1.903027
 
  0.4166667E-01  0.8333333E-01  0.0000000E+00  0.4629630E-02
    1      -21.921873
    2      -16.746533
    3      -15.538244
    4      -10.050765
    5      -10.007997
    6       -6.516848
    7       -6.043226
    8       -4.797667
    9       -1.137667
   10        0.719777
   11        1.519623
   12        1.917428
 
  0.8333333E-01  0.8333333E-01  0.0000000E+00  0.4629630E-02
    1      -21.890731
    2      -17.117221
    3      -15.124677
    4      -10.013948
    5       -9.975603
    6       -6.628536
    7       -6.101876
    8       -4.996748
    9       -0.898816
   10        0.762045
   11        1.562234
   12        1.960631
 
  0.1250000E+00  0.8333333E-01  0.0000000E+00  0.4629630E-02
    1      -21.838853
    2      -17.511268
    3      -14.659581
    4       -9.952651
    5       -9.921704
    6       -6.799515
    7       -6.209075
    8       -5.281879
    9       -0.548005
   10        0.832486
   11        1.633240
   12        2.032635
 
  0.1666667E+00  0.8333333E-01  0.0000000E+00  0.4629630E-02
    1      -21.766274
    2      -17.901077
    3      -14.171187
    4       -9.866970
    5       -9.846436
    6       -7.017817
    7       -6.368532
    8       -5.616232
    9       -0.122959
   10        0.931087
   11        1.732621
   12        2.133440
 
  0.2083333E+00  0.8333333E-01  0.0000000E+00  0.4629630E-02
    1      -21.673044
    2      -18.279056
    3      -13.668013
    4       -9.757048
    5       -9.749989
    6       -7.275250
    7       -6.577622
    8       -5.974464
    9        0.349737
   10        1.057828
   11        1.860349
   12        2.263044
 
  0.2500000E+00  0.8333333E-01  0.0000000E+00  0.4629630E-02
    1      -21.559232
    2      -18.642169
    3      -13.154343
    4       -9.632603
    5       -9.623071
    6       -7.567539
    7       -6.828089
    8       -6.340656
    9        0.852595
   10        1.212681
   11        2.016383
   12        2.421444
 
  0.2916667E+00  0.8333333E-01  0.0000000E+00  0.4629630E-02
    1      -21.424920
    2      -18.988847
    3      -12.633354
    4       -9.494570
    5       -9.465282
    6       -7.893823
    7       -7.107476
    8       -6.704880
    9        1.373797
   10        1.395607
   11        2.200668
   12        2.608634
 
  0.3333333E+00  0.8333333E-01  0.0000000E+00  0.4629630E-02
    1      -21.270209
    2      -19.318127
    3      -12.108053
    4       -9.336224
    5       -9.283987
    6       -8.255357
    7       -7.401299
    8       -7.060764
    9        1.606557
   10        1.904788
   11        2.413127
   12        2.824606
 
  0.3750000E+00  0.8333333E-01  0.0000000E+00  0.4629630E-02
    1      -21.095219
    2      -19.629344
    3      -11.581660
    4       -9.157926
    5       -9.079564
    6       -8.653160
    7       -7.696049
    8       -7.404061
    9        1.845472
   10        2.438816
   11        2.653643
   12        3.069350
 
  0.4166667E+00  0.8333333E-01  0.0000000E+00  0.4629630E-02
    1      -20.900091
    2      -19.922000
    3      -11.057845
    4       -9.085758
    5       -8.960058
    6       -8.852485
    7       -7.981850
    8       -7.731827
    9        2.112272
   10        2.922012
   11        2.969877
   12        3.342844
 
  0.4583333E+00  0.8333333E-01  0.0000000E+00  0.4629630E-02
    1      -20.684991
    2      -20.195698
    3      -10.540908
    4       -9.548724
    5       -8.743003
    6       -8.603335
    7       -8.253084
    8       -8.041945
    9        2.406852
   10        3.078610
   11        3.217711
   12        3.488669
 
  0.5000000E+00  0.8333333E-01  0.0000000E+00  0.2314815E-02
    1      -20.450117
    2      -20.450117
    3      -10.035913
    4      -10.035913
    5       -8.507164
    6       -8.507164
    7       -8.332846
    8       -8.332846
    9        2.729053
   10        2.729053
   11        3.537291
   12        3.537294
 
  0.0000000E+00  0.1111111E+00  0.0000000E+00  0.2314815E-02
    1      -21.842197
    2      -16.465647
    3      -15.688040
    4      -10.362899
    5       -9.956552
    6       -6.798996
    7       -6.238213
    8       -4.616093
    9       -1.280267
   10        0.827754
   11        1.629084
   12        2.028372
 
  0.4166667E-01  0.1111111E+00  0.0000000E+00  0.4629630E-02
    1      -21.831824
    2      -16.668404
    3      -15.471509
    4      -10.351739
    5       -9.944308
    6       -6.843940
    7       -6.246295
    8       -4.690402
    9       -1.193649
   10        0.841845
   11        1.643278
   12        2.042773
 
  0.8333333E-01  0.1111111E+00  0.0000000E+00  0.4629630E-02
    1      -21.800715
    2      -17.037913
    3      -15.060831
    4      -10.318262
    5       -9.907596
    6       -6.968199
    7       -6.279991
    8       -4.892891
    9       -0.954412
   10        0.884116
   11        1.685856
   12        2.085976
 
  0.1250000E+00  0.1111111E+00  0.0000000E+00  0.4629630E-02
    1      -21.748889
    2      -17.430529
    3      -14.600121
    4      -10.262471
    5       -9.846473
    6       -7.151738
    7       -6.355867
    8       -5.181219
    9       -0.605435
   10        0.954566
   11        1.756805
   12        2.157983
 
  0.1666667E+00  0.1111111E+00  0.0000000E+00  0.4629630E-02
    1      -21.676384
    2      -17.818987
    3      -14.117447
    4      -10.184359
    5       -9.761037
    6       -7.378135
    7       -6.484373
    8       -5.517687
    9       -0.185302
   10        1.053185
   11        1.856105
   12        2.258792
 
  0.2083333E+00  0.1111111E+00  0.0000000E+00  0.4629630E-02
    1      -21.583254
    2      -18.195764
    3      -13.621512
    4      -10.083901
    5       -9.651430
    6       -7.636503
    7       -6.667947
    8       -5.876963
    9        0.279448
   10        1.179954
   11        1.983727
   12        2.388404
 
  0.2500000E+00  0.1111111E+00  0.0000000E+00  0.4629630E-02
    1      -21.469568
    2      -18.557831
    3      -13.116966
    4       -9.961023
    5       -9.517842
    6       -7.920231
    7       -6.902654
    8       -6.243408
    9        0.771670
   10        1.334845
   11        2.139629
   12        2.546815
 
  0.2916667E+00  0.1111111E+00  0.0000000E+00  0.4629630E-02
    1      -21.335409
    2      -18.903605
    3      -12.607520
    4       -9.815571
    5       -9.360515
    6       -8.226134
    7       -7.179743
    8       -6.607364
    9        1.279937
   10        1.517816
   11        2.323757
   12        2.734020
 
  0.3333333E+00  0.1111111E+00  0.0000000E+00  0.4629630E-02
    1      -21.180884
    2      -19.232108
    3      -12.096912
    4       -9.647261
    5       -9.179755
    6       -8.554060
    7       -7.486893
    8       -6.962664
    9        1.728816
   10        1.796091
   11        2.536037
   12        2.950013
 
  0.3750000E+00  0.1111111E+00  0.0000000E+00  0.4629630E-02
    1      -21.006114
    2      -19.542657
    3      -11.589336
    4       -9.455627
    5       -8.975940
    6       -8.906371
    7       -7.809517
    8       -7.305203
    9        1.967780
   10        2.313851
   11        2.776374
   12        3.194782
 
  0.4166667E+00  0.1111111E+00  0.0000000E+00  0.4629630E-02
    1      -20.811247
    2      -19.834740
    3      -11.089701
    4       -9.286608
    5       -9.239990
    6       -8.749540
    7       -8.132649
    8       -7.632129
    9        2.234632
   10        2.828019
   11        3.044622
   12        3.468315
 
  0.4583333E+00  0.1111111E+00  0.0000000E+00  0.4629630E-02
    1      -20.596456
    2      -20.107946
    3      -10.603704
    4       -9.697229
    5       -8.999550
    6       -8.501133
    7       -8.443542
    8       -7.941387
    9        2.529275
   10        3.201344
   11        3.333814
   12        3.340497
 
  0.5000000E+00  0.1111111E+00  0.0000000E+00  0.2314815E-02
    1      -20.361943
    2      -20.361943
    3      -10.137585
    4      -10.137585
    5       -8.733795
    6       -8.733795
    7       -8.231445
    8       -8.231445
    9        2.851577
   10        2.851577
   11        3.660826
   12        3.660878
 
  0.0000000E+00  0.1388889E+00  0.0000000E+00  0.2314815E-02
    1      -21.726563
    2      -16.365494
    3      -15.604853
    4      -10.765457
    5       -9.820030
    6       -7.179548
    7       -6.501077
    8       -4.476389
    9       -1.361633
   10        0.984762
   11        1.787991
   12        2.189544
 
  0.4166667E-01  0.1388889E+00  0.0000000E+00  0.4629630E-02
    1      -21.716204
    2      -16.568368
    3      -15.389058
    4      -10.753712
    5       -9.807834
    6       -7.229300
    7       -6.499380
    8       -4.553027
    9       -1.274027
   10        0.998848
   11        1.802167
   12        2.203944
 
  0.8333333E-01  0.1388889E+00  0.0000000E+00  0.4629630E-02
    1      -21.685134
    2      -16.936501
    3      -14.982375
    4      -10.718427
    5       -9.771263
    6       -7.364204
    7       -6.508113
    8       -4.760447
    9       -1.033876
   10        1.041107
   11        1.844692
   12        2.247145
 
  0.1250000E+00  0.1388889E+00  0.0000000E+00  0.4629630E-02
    1      -21.633376
    2      -17.327253
    3      -14.528084
    4      -10.659452
    5       -9.710376
    6       -7.558426
    7       -6.551308
    8       -5.053262
    9       -0.687085
   10        1.111542
   11        1.915550
   12        2.319149
 
  0.1666667E+00  0.1388889E+00  0.0000000E+00  0.4629630E-02
    1      -21.560971
    2      -17.713915
    3      -14.054019
    4      -10.576503
    5       -9.625273
    6       -7.792220
    7       -6.645132
    8       -5.392590
    9       -0.273378
   10        1.210150
   11        2.014719
   12        2.419957
 
  0.2083333E+00  0.1388889E+00  0.0000000E+00  0.4629630E-02
    1      -21.467971
    2      -18.089089
    3      -13.569248
    4      -10.469118
    5       -9.516097
    6       -8.053027
    7       -6.796327
    8       -5.753200
    9        0.180883
   10        1.336920
   11        2.142164
   12        2.549571
 
  0.2500000E+00  0.1388889E+00  0.0000000E+00  0.4629630E-02
    1      -21.354447
    2      -18.449758
    3      -13.079124
    4      -10.336583
    5       -9.383038
    6       -8.332962
    7       -7.004619
    8       -6.119884
    9        0.659109
   10        1.491823
   11        2.297837
   12        2.707989
 
  0.2916667E+00  0.1388889E+00  0.0000000E+00  0.4629630E-02
    1      -21.220490
    2      -18.794328
    3      -12.588383
    4      -10.177837
    5       -9.226342
    6       -8.627323
    7       -7.264585
    8       -6.483377
    9        1.150458
   10        1.674817
   11        2.481674
   12        2.895206
 
  0.3333333E+00  0.1388889E+00  0.0000000E+00  0.4629630E-02
    1      -21.066206
    2      -19.121796
    3      -12.102131
    4       -9.991385
    5       -9.046313
    6       -8.933994
    7       -7.566983
    8       -6.837801
    9        1.647327
   10        1.885845
   11        2.693592
   12        3.111215
 
  0.3750000E+00  0.1388889E+00  0.0000000E+00  0.4629630E-02
    1      -20.891725
    2      -19.431459
    3      -11.626218
    4       -9.775301
    5       -9.253317
    6       -8.843331
    7       -7.899742
    8       -7.179242
    9        2.124836
   10        2.143986
   11        2.933479
   12        3.356006
 
  0.4166667E+00  0.1388889E+00  0.0000000E+00  0.4629630E-02
    1      -20.697201
    2      -19.722781
    3      -11.167142
    4       -9.588042
    5       -9.527553
    6       -8.617863
    7       -8.248737
    8       -7.504974
    9        2.391709
   10        2.635829
   11        3.201175
   12        3.629568
 
  0.4583333E+00  0.1388889E+00  0.0000000E+00  0.4629630E-02
    1      -20.482815
    2      -19.995338
    3      -10.731218
    4       -9.942853
    5       -9.247011
    6       -8.598767
    7       -8.370483
    8       -7.813021
    9        2.686367
   10        3.118924
   11        3.358505
   12        3.496357
 
  0.5000000E+00  0.1388889E+00  0.0000000E+00  0.2314815E-02
    1      -20.248779
    2      -20.248779
    3      -10.322870
    4      -10.322870
    5       -8.935306
    6       -8.935306
    7       -8.101904
    8       -8.101904
    9        3.008687
   10        3.008687
   11        3.589134
   12        3.589135
 
  0.0000000E+00  0.1666667E+00  0.0000000E+00  0.2314815E-02
    1      -21.585475
    2      -16.243167
    3      -15.509802
    4      -11.205618
    5       -9.653790
    6       -7.603753
    7       -6.806991
    8       -4.306005
    9       -1.473531
   10        1.176718
   11        1.982059
   12        2.386548
 
  0.4166667E-01  0.1666667E+00  0.0000000E+00  0.4629630E-02
    1      -21.575133
    2      -16.446866
    3      -15.294507
    4      -11.192878
    5       -9.641655
    6       -7.657756
    7       -6.795730
    8       -4.386072
    9       -1.384185
   10        1.190793
   11        1.996208
   12        2.400946
 
  0.8333333E-01  0.1666667E+00  0.0000000E+00  0.4629630E-02
    1      -21.544115
    2      -16.813545
    3      -14.893362
    4      -11.154511
    5       -9.605269
    6       -7.802108
    7       -6.779591
    8       -4.600529
    9       -1.142046
   10        1.233022
   11        2.038646
   12        2.444140
 
  0.1250000E+00  0.1666667E+00  0.0000000E+00  0.4629630E-02
    1      -21.492443
    2      -17.201961
    3      -14.448596
    4      -11.090049
    5       -9.544693
    6       -8.006013
    7       -6.789054
    8       -4.899462
    9       -0.797495
   10        1.303412
   11        2.109357
   12        2.516135
 
  0.1666667E+00  0.1666667E+00  0.0000000E+00  0.4629630E-02
    1      -21.420159
    2      -17.586312
    3      -13.987756
    4      -10.998634
    5       -9.460026
    6       -8.247024
    7       -6.845244
    8       -5.242485
    9       -0.391659
   10        1.401971
   11        2.208307
   12        2.616934
 
  0.2083333E+00  0.1666667E+00  0.0000000E+00  0.4629630E-02
    1      -21.327320
    2      -17.959412
    3      -13.520671
    4      -10.878909
    5       -9.351415
    6       -8.511402
    7       -6.958739
    8       -5.604666
    9        0.049555
   10        1.528696
   11        2.335445
   12        2.746541
 
  0.2500000E+00  0.1666667E+00  0.0000000E+00  0.4629630E-02
    1      -21.214000
    2      -18.318277
    3      -13.054051
    4      -10.728871
    5       -9.219053
    6       -8.790568
    7       -7.132586
    8       -5.971463
    9        0.510454
   10        1.683569
   11        2.490696
   12        2.904957
 
  0.2916667E+00  0.1666667E+00  0.0000000E+00  0.4629630E-02
    1      -21.080293
    2      -18.661297
    3      -12.594463
    4      -10.545779
    5       -9.079050
    6       -9.063187
    7       -7.364314
    8       -6.334168
    9        0.981068
   10        1.866547
   11        2.673951
   12        3.092178
 
  0.3333333E+00  0.1666667E+00  0.0000000E+00  0.4629630E-02
    1      -20.926312
    2      -18.987438
    3      -12.149017
    4      -10.326338
    5       -9.373582
    6       -8.884125
    7       -7.647350
    8       -6.687292
    9        1.454580
   10        2.077568
   11        2.885024
   12        3.308198
 
  0.3750000E+00  0.1666667E+00  0.0000000E+00  0.4629630E-02
    1      -20.752194
    2      -19.295967
    3      -11.724856
    4      -10.067580
    5       -9.672792
    6       -8.682247
    7       -7.972151
    8       -7.027174
    9        1.925983
   10        2.316554
   11        3.123542
   12        3.553006
 
  0.4166667E+00  0.1666667E+00  0.0000000E+00  0.4629630E-02
    1      -20.558103
    2      -19.586321
    3      -11.327445
    4       -9.977218
    5       -9.768809
    6       -8.458020
    7       -8.327056
    8       -7.351247
    9        2.391329
   10        2.583413
   11        3.388165
   12        3.826590
 
  0.4583333E+00  0.1666667E+00  0.0000000E+00  0.4629630E-02
    1      -20.344227
    2      -19.858053
    3      -10.958343
    4      -10.289491
    5       -9.434003
    6       -8.698780
    7       -8.212012
    8       -7.657638
    9        2.847162
   10        2.878036
   11        3.550036
   12        3.641387
 
  0.5000000E+00  0.1666667E+00  0.0000000E+00  0.2314815E-02
    1      -20.110791
    2      -20.110791
    3      -10.614405
    4      -10.614405
    5       -9.072774
    6       -9.072774
    7       -7.944927
    8       -7.944927
    9        3.200297
   10        3.200297
   11        3.289217
   12        3.289217
 