       N       E                     dE             d eps       ncg     rms          rms(c)
DAV:   1     0.185032221557E+03    0.18503E+03   -0.10551E+04  5928   0.274E+03
DAV:   2    -0.901056505311E+01   -0.19404E+03   -0.17269E+03 10356   0.260E+02
DAV:   3    -0.380033971257E+02   -0.28993E+02   -0.28484E+02  7340   0.119E+02    0.703E+00
RMM:   4    -0.375267022653E+02    0.47669E+00   -0.96485E+00  5928   0.266E+01    0.408E+00
RMM:   5    -0.368379829448E+02    0.68872E+00   -0.26452E+00  5943   0.111E+01    0.690E-01
RMM:   6    -0.368408366907E+02   -0.28537E-02   -0.89502E-02  6400   0.203E+00    0.494E-01
RMM:   7    -0.368321457111E+02    0.86910E-02   -0.30851E-02  5950   0.152E+00    0.319E-01
RMM:   8    -0.368275167172E+02    0.46290E-02   -0.61435E-03  5934   0.520E-01    0.132E-01
RMM:   9    -0.368273821464E+02    0.13457E-03   -0.18834E-02  5928   0.811E-01    0.149E-01
RMM:  10    -0.368272947698E+02    0.87377E-04   -0.20865E-03  5928   0.329E-01    0.263E-02
RMM:  11    -0.368295065684E+02   -0.22118E-02   -0.63280E-04  5930   0.171E-01    0.418E-02
RMM:  12    -0.368300076507E+02   -0.50108E-03   -0.18855E-04  5953   0.911E-02    0.600E-03
RMM:  13    -0.368302726926E+02   -0.26504E-03   -0.52726E-05  6021   0.387E-02    0.323E-03
RMM:  14    -0.368303535939E+02   -0.80901E-04   -0.10161E-05  5975   0.149E-02    0.933E-04
RMM:  15    -0.368303664967E+02   -0.12903E-04   -0.18296E-06  5971   0.744E-03    0.221E-03
RMM:  16    -0.368303804885E+02   -0.13992E-04   -0.17743E-06  5928   0.870E-03    0.119E-03
RMM:  17    -0.368303866847E+02   -0.61962E-05   -0.12313E-07  6016   0.213E-03    0.665E-04
RMM:  18    -0.368303877423E+02   -0.10576E-05   -0.50099E-08  5932   0.170E-03    0.808E-05
RMM:  19    -0.368303884301E+02   -0.68784E-06   -0.93071E-09  5672   0.438E-04    0.140E-05
RMM:  20    -0.368303884736E+02   -0.43510E-07   -0.73939E-10  4478   0.138E-04    0.202E-05
RMM:  21    -0.368303884850E+02   -0.11347E-07   -0.16797E-10  4284   0.789E-05    0.859E-06
RMM:  22    -0.368303884849E+02    0.28649E-10   -0.24287E-11  3899   0.506E-05
   1 F= -.36830388E+02 E0= -.36830388E+02  d E =-.368304E+02
       N       E                     dE             d eps       ncg     rms          rms(c)
DAV:   1    -0.368303878719E+02    0.61308E-06   -0.54065E-05  6388   0.693E-02    0.139E-03
RMM:   2    -0.368303879187E+02   -0.46795E-07   -0.90790E-07  5950   0.833E-03    0.103E-03
RMM:   3    -0.368303879085E+02    0.10183E-07   -0.14254E-07  5992   0.306E-03    0.251E-04
RMM:   4    -0.368303879037E+02    0.48290E-08   -0.85338E-09  6035   0.730E-04    0.747E-05
RMM:   5    -0.368303879054E+02   -0.17684E-08   -0.74386E-10  4920   0.197E-04    0.334E-05
RMM:   6    -0.368303879052E+02    0.22828E-09   -0.92690E-11  3820   0.851E-05    0.438E-06
RMM:   7    -0.368303879053E+02   -0.79012E-10   -0.18278E-11  3796   0.555E-05
   2 F= -.36830388E+02 E0= -.36830388E+02  d E =0.579649E-06
       N       E                     dE             d eps       ncg     rms          rms(c)
DAV:   1    -0.368303885381E+02   -0.63291E-06   -0.34417E-05  6720   0.553E-02    0.112E-03
RMM:   2    -0.368303885574E+02   -0.19335E-07   -0.55476E-07  5950   0.663E-03    0.818E-04
RMM:   3    -0.368303885311E+02    0.26329E-07   -0.88461E-08  5987   0.241E-03    0.190E-04
RMM:   4    -0.368303885316E+02   -0.50113E-09   -0.50957E-09  6037   0.566E-04    0.598E-05
RMM:   5    -0.368303885297E+02    0.19093E-08   -0.43154E-10  4448   0.154E-04    0.266E-05
RMM:   6    -0.368303885298E+02   -0.83787E-10   -0.51859E-11  3750   0.709E-05
   3 F= -.36830389E+02 E0= -.36830389E+02  d E =-.624509E-06
       N       E                     dE             d eps       ncg     rms          rms(c)
DAV:   1    -0.368303885293E+02    0.43474E-09    0.58461E-09  4928   0.822E-05    0.374E-06
RMM:   2    -0.368303885299E+02   -0.61766E-09    0.16164E-12  2939   0.280E-05    0.231E-06
RMM:   3    -0.368303885299E+02   -0.27285E-11   -0.27369E-12  2905   0.295E-05    0.167E-07
RMM:   4    -0.368303885298E+02    0.44906E-10   -0.40548E-12  2665   0.272E-05    0.115E-07
RMM:   5    -0.368303885298E+02    0.52751E-10   -0.32278E-12  2498   0.253E-05
   4 F= -.36830389E+02 E0= -.36830389E+02  d E =-.420641E-11
       N       E                     dE             d eps       ncg     rms          rms(c)
DAV:   1    -0.368303885296E+02    0.22101E-09    0.58887E-09  4668   0.502E-05    0.392E-07
RMM:   2    -0.368303885302E+02   -0.56389E-09    0.46751E-13  1560   0.146E-05    0.239E-07
RMM:   3    -0.368303885301E+02    0.57980E-10   -0.14186E-15  1501   0.146E-05    0.192E-08
RMM:   4    -0.368303885301E+02    0.29331E-10   -0.63731E-13  1479   0.146E-05    0.117E-08
RMM:   5    -0.368303885301E+02    0.18986E-10   -0.56375E-14  1464   0.145E-05
   5 F= -.36830389E+02 E0= -.36830389E+02  d E =-.289333E-09
