<?xml version="1.0" encoding="ISO-8859-1"?>
<modeling>
 <generator>
  <i name="program" type="string">vasp </i>
  <i name="version" type="string">5.3.5  </i>
  <i name="subversion" type="string">31Mar14 (build Mar 02 2015 18:14:16) complex                          parallel </i>
  <i name="platform" type="string">LinuxIFC </i>
  <i name="date" type="string">2018 08 10 </i>
  <i name="time" type="string">14:53:58 </i>
 </generator>
 <incar>
  <i type="string" name="SYSTEM">  gr</i>
  <i type="string" name="PREC">accurate : accuracy</i>
  <i type="string" name="ALGO"> FAST.</i>
  <i type="int" name="NELM">   100</i>
  <i type="int" name="NELMDL">    -3</i>
  <i type="int" name="NELMIN">     5</i>
  <i type="int" name="IBRION">     1</i>
  <i name="EDIFF">      0.00000000</i>
  <i name="EDIFFG">     -0.00000100</i>
  <i type="int" name="NSW">   400</i>
  <i type="int" name="ISIF">     2</i>
  <i name="ENCUT">   2000.00000000</i>
  <i type="int" name="ISMEAR">     0</i>
  <i name="SIGMA">      0.05000000</i>
  <i type="int" name="NWRITE">     2</i>
  <i type="logical" name="LWAVE"> F  </i>
  <i type="logical" name="LCHARG"> F  </i>
  <i type="int" name="NELM">   100</i>
 </incar>
 <kpoints>
  <generation param="Gamma">
   <v type="int" name="divisions">      24       36        1 </v>
   <v name="usershift">      0.00000000       0.00000000       0.00000000 </v>
   <v name="genvec1">      0.04166667       0.00000000       0.00000000 </v>
   <v name="genvec2">      0.00000000       0.02777778       0.00000000 </v>
   <v name="genvec3">      0.00000000       0.00000000       1.00000000 </v>
   <v name="shift">      0.00000000       0.00000000       0.00000000 </v>
  </generation>
  <varray name="kpointlist" >
   <v>       0.00000000       0.00000000       0.00000000 </v>
   <v>       0.04166667       0.00000000       0.00000000 </v>
   <v>       0.08333333       0.00000000       0.00000000 </v>
   <v>       0.12500000       0.00000000       0.00000000 </v>
   <v>       0.16666667       0.00000000       0.00000000 </v>
   <v>       0.20833333       0.00000000       0.00000000 </v>
   <v>       0.25000000       0.00000000       0.00000000 </v>
   <v>       0.29166667       0.00000000       0.00000000 </v>
   <v>       0.33333333       0.00000000       0.00000000 </v>
   <v>       0.37500000       0.00000000       0.00000000 </v>
   <v>       0.41666667       0.00000000       0.00000000 </v>
   <v>       0.45833333       0.00000000       0.00000000 </v>
   <v>       0.50000000       0.00000000       0.00000000 </v>
   <v>       0.00000000       0.02777778       0.00000000 </v>
   <v>       0.04166667       0.02777778       0.00000000 </v>
   <v>       0.08333333       0.02777778       0.00000000 </v>
   <v>       0.12500000       0.02777778       0.00000000 </v>
   <v>       0.16666667       0.02777778       0.00000000 </v>
   <v>       0.20833333       0.02777778       0.00000000 </v>
   <v>       0.25000000       0.02777778       0.00000000 </v>
   <v>       0.29166667       0.02777778       0.00000000 </v>
   <v>       0.33333333       0.02777778       0.00000000 </v>
   <v>       0.37500000       0.02777778       0.00000000 </v>
   <v>       0.41666667       0.02777778       0.00000000 </v>
   <v>       0.45833333       0.02777778       0.00000000 </v>
   <v>       0.50000000       0.02777778       0.00000000 </v>
   <v>       0.00000000       0.05555556       0.00000000 </v>
   <v>       0.04166667       0.05555556       0.00000000 </v>
   <v>       0.08333333       0.05555556       0.00000000 </v>
   <v>       0.12500000       0.05555556       0.00000000 </v>
   <v>       0.16666667       0.05555556       0.00000000 </v>
   <v>       0.20833333       0.05555556       0.00000000 </v>
   <v>       0.25000000       0.05555556       0.00000000 </v>
   <v>       0.29166667       0.05555556       0.00000000 </v>
   <v>       0.33333333       0.05555556       0.00000000 </v>
   <v>       0.37500000       0.05555556       0.00000000 </v>
   <v>       0.41666667       0.05555556       0.00000000 </v>
   <v>       0.45833333       0.05555556       0.00000000 </v>
   <v>       0.50000000       0.05555556       0.00000000 </v>
   <v>       0.00000000       0.08333333       0.00000000 </v>
   <v>       0.04166667       0.08333333       0.00000000 </v>
   <v>       0.08333333       0.08333333       0.00000000 </v>
   <v>       0.12500000       0.08333333       0.00000000 </v>
   <v>       0.16666667       0.08333333       0.00000000 </v>
   <v>       0.20833333       0.08333333       0.00000000 </v>
   <v>       0.25000000       0.08333333       0.00000000 </v>
   <v>       0.29166667       0.08333333       0.00000000 </v>
   <v>       0.33333333       0.08333333       0.00000000 </v>
   <v>       0.37500000       0.08333333       0.00000000 </v>
   <v>       0.41666667       0.08333333       0.00000000 </v>
   <v>       0.45833333       0.08333333       0.00000000 </v>
   <v>       0.50000000       0.08333333       0.00000000 </v>
   <v>       0.00000000       0.11111111       0.00000000 </v>
   <v>       0.04166667       0.11111111       0.00000000 </v>
   <v>       0.08333333       0.11111111       0.00000000 </v>
   <v>       0.12500000       0.11111111       0.00000000 </v>
   <v>       0.16666667       0.11111111       0.00000000 </v>
   <v>       0.20833333       0.11111111       0.00000000 </v>
   <v>       0.25000000       0.11111111       0.00000000 </v>
   <v>       0.29166667       0.11111111       0.00000000 </v>
   <v>       0.33333333       0.11111111       0.00000000 </v>
   <v>       0.37500000       0.11111111       0.00000000 </v>
   <v>       0.41666667       0.11111111       0.00000000 </v>
   <v>       0.45833333       0.11111111       0.00000000 </v>
   <v>       0.50000000       0.11111111       0.00000000 </v>
   <v>       0.00000000       0.13888889       0.00000000 </v>
   <v>       0.04166667       0.13888889       0.00000000 </v>
   <v>       0.08333333       0.13888889       0.00000000 </v>
   <v>       0.12500000       0.13888889       0.00000000 </v>
   <v>       0.16666667       0.13888889       0.00000000 </v>
   <v>       0.20833333       0.13888889       0.00000000 </v>
   <v>       0.25000000       0.13888889       0.00000000 </v>
   <v>       0.29166667       0.13888889       0.00000000 </v>
   <v>       0.33333333       0.13888889       0.00000000 </v>
   <v>       0.37500000       0.13888889       0.00000000 </v>
   <v>       0.41666667       0.13888889       0.00000000 </v>
   <v>       0.45833333       0.13888889       0.00000000 </v>
   <v>       0.50000000       0.13888889       0.00000000 </v>
   <v>       0.00000000       0.16666667       0.00000000 </v>
   <v>       0.04166667       0.16666667       0.00000000 </v>
   <v>       0.08333333       0.16666667       0.00000000 </v>
   <v>       0.12500000       0.16666667       0.00000000 </v>
   <v>       0.16666667       0.16666667       0.00000000 </v>
   <v>       0.20833333       0.16666667       0.00000000 </v>
   <v>       0.25000000       0.16666667       0.00000000 </v>
   <v>       0.29166667       0.16666667       0.00000000 </v>
   <v>       0.33333333       0.16666667       0.00000000 </v>
   <v>       0.37500000       0.16666667       0.00000000 </v>
   <v>       0.41666667       0.16666667       0.00000000 </v>
   <v>       0.45833333       0.16666667       0.00000000 </v>
   <v>       0.50000000       0.16666667       0.00000000 </v>
   <v>       0.00000000       0.19444444       0.00000000 </v>
   <v>       0.04166667       0.19444444       0.00000000 </v>
   <v>       0.08333333       0.19444444       0.00000000 </v>
   <v>       0.12500000       0.19444444       0.00000000 </v>
   <v>       0.16666667       0.19444444       0.00000000 </v>
   <v>       0.20833333       0.19444444       0.00000000 </v>
   <v>       0.25000000       0.19444444       0.00000000 </v>
   <v>       0.29166667       0.19444444       0.00000000 </v>
   <v>       0.33333333       0.19444444       0.00000000 </v>
   <v>       0.37500000       0.19444444       0.00000000 </v>
   <v>       0.41666667       0.19444444       0.00000000 </v>
   <v>       0.45833333       0.19444444       0.00000000 </v>
   <v>       0.50000000       0.19444444       0.00000000 </v>
   <v>       0.00000000       0.22222222       0.00000000 </v>
   <v>       0.04166667       0.22222222       0.00000000 </v>
   <v>       0.08333333       0.22222222       0.00000000 </v>
   <v>       0.12500000       0.22222222       0.00000000 </v>
   <v>       0.16666667       0.22222222       0.00000000 </v>
   <v>       0.20833333       0.22222222       0.00000000 </v>
   <v>       0.25000000       0.22222222       0.00000000 </v>
   <v>       0.29166667       0.22222222       0.00000000 </v>
   <v>       0.33333333       0.22222222       0.00000000 </v>
   <v>       0.37500000       0.22222222       0.00000000 </v>
   <v>       0.41666667       0.22222222       0.00000000 </v>
   <v>       0.45833333       0.22222222       0.00000000 </v>
   <v>       0.50000000       0.22222222       0.00000000 </v>
   <v>       0.00000000       0.25000000       0.00000000 </v>
   <v>       0.04166667       0.25000000       0.00000000 </v>
   <v>       0.08333333       0.25000000       0.00000000 </v>
   <v>       0.12500000       0.25000000       0.00000000 </v>
   <v>       0.16666667       0.25000000       0.00000000 </v>
   <v>       0.20833333       0.25000000       0.00000000 </v>
   <v>       0.25000000       0.25000000       0.00000000 </v>
   <v>       0.29166667       0.25000000       0.00000000 </v>
   <v>       0.33333333       0.25000000       0.00000000 </v>
   <v>       0.37500000       0.25000000       0.00000000 </v>
   <v>       0.41666667       0.25000000       0.00000000 </v>
   <v>       0.45833333       0.25000000       0.00000000 </v>
   <v>       0.50000000       0.25000000       0.00000000 </v>
   <v>       0.00000000       0.27777778       0.00000000 </v>
   <v>       0.04166667       0.27777778       0.00000000 </v>
   <v>       0.08333333       0.27777778       0.00000000 </v>
   <v>       0.12500000       0.27777778       0.00000000 </v>
   <v>       0.16666667       0.27777778       0.00000000 </v>
   <v>       0.20833333       0.27777778       0.00000000 </v>
   <v>       0.25000000       0.27777778       0.00000000 </v>
   <v>       0.29166667       0.27777778       0.00000000 </v>
   <v>       0.33333333       0.27777778       0.00000000 </v>
   <v>       0.37500000       0.27777778       0.00000000 </v>
   <v>       0.41666667       0.27777778       0.00000000 </v>
   <v>       0.45833333       0.27777778       0.00000000 </v>
   <v>       0.50000000       0.27777778       0.00000000 </v>
   <v>       0.00000000       0.30555556       0.00000000 </v>
   <v>       0.04166667       0.30555556       0.00000000 </v>
   <v>       0.08333333       0.30555556       0.00000000 </v>
   <v>       0.12500000       0.30555556       0.00000000 </v>
   <v>       0.16666667       0.30555556       0.00000000 </v>
   <v>       0.20833333       0.30555556       0.00000000 </v>
   <v>       0.25000000       0.30555556       0.00000000 </v>
   <v>       0.29166667       0.30555556       0.00000000 </v>
   <v>       0.33333333       0.30555556       0.00000000 </v>
   <v>       0.37500000       0.30555556       0.00000000 </v>
   <v>       0.41666667       0.30555556       0.00000000 </v>
   <v>       0.45833333       0.30555556       0.00000000 </v>
   <v>       0.50000000       0.30555556       0.00000000 </v>
   <v>       0.00000000       0.33333333       0.00000000 </v>
   <v>       0.04166667       0.33333333       0.00000000 </v>
   <v>       0.08333333       0.33333333       0.00000000 </v>
   <v>       0.12500000       0.33333333       0.00000000 </v>
   <v>       0.16666667       0.33333333       0.00000000 </v>
   <v>       0.20833333       0.33333333       0.00000000 </v>
   <v>       0.25000000       0.33333333       0.00000000 </v>
   <v>       0.29166667       0.33333333       0.00000000 </v>
   <v>       0.33333333       0.33333333       0.00000000 </v>
   <v>       0.37500000       0.33333333       0.00000000 </v>
   <v>       0.41666667       0.33333333       0.00000000 </v>
   <v>       0.45833333       0.33333333       0.00000000 </v>
   <v>       0.50000000       0.33333333       0.00000000 </v>
   <v>       0.00000000       0.36111111       0.00000000 </v>
   <v>       0.04166667       0.36111111       0.00000000 </v>
   <v>       0.08333333       0.36111111       0.00000000 </v>
   <v>       0.12500000       0.36111111       0.00000000 </v>
   <v>       0.16666667       0.36111111       0.00000000 </v>
   <v>       0.20833333       0.36111111       0.00000000 </v>
   <v>       0.25000000       0.36111111       0.00000000 </v>
   <v>       0.29166667       0.36111111       0.00000000 </v>
   <v>       0.33333333       0.36111111       0.00000000 </v>
   <v>       0.37500000       0.36111111       0.00000000 </v>
   <v>       0.41666667       0.36111111       0.00000000 </v>
   <v>       0.45833333       0.36111111       0.00000000 </v>
   <v>       0.50000000       0.36111111       0.00000000 </v>
   <v>       0.00000000       0.38888889       0.00000000 </v>
   <v>       0.04166667       0.38888889       0.00000000 </v>
   <v>       0.08333333       0.38888889       0.00000000 </v>
   <v>       0.12500000       0.38888889       0.00000000 </v>
   <v>       0.16666667       0.38888889       0.00000000 </v>
   <v>       0.20833333       0.38888889       0.00000000 </v>
   <v>       0.25000000       0.38888889       0.00000000 </v>
   <v>       0.29166667       0.38888889       0.00000000 </v>
   <v>       0.33333333       0.38888889       0.00000000 </v>
   <v>       0.37500000       0.38888889       0.00000000 </v>
   <v>       0.41666667       0.38888889       0.00000000 </v>
   <v>       0.45833333       0.38888889       0.00000000 </v>
   <v>       0.50000000       0.38888889       0.00000000 </v>
   <v>       0.00000000       0.41666667       0.00000000 </v>
   <v>       0.04166667       0.41666667       0.00000000 </v>
   <v>       0.08333333       0.41666667       0.00000000 </v>
   <v>       0.12500000       0.41666667       0.00000000 </v>
   <v>       0.16666667       0.41666667       0.00000000 </v>
   <v>       0.20833333       0.41666667       0.00000000 </v>
   <v>       0.25000000       0.41666667       0.00000000 </v>
   <v>       0.29166667       0.41666667       0.00000000 </v>
   <v>       0.33333333       0.41666667       0.00000000 </v>
   <v>       0.37500000       0.41666667       0.00000000 </v>
   <v>       0.41666667       0.41666667       0.00000000 </v>
   <v>       0.45833333       0.41666667       0.00000000 </v>
   <v>       0.50000000       0.41666667       0.00000000 </v>
   <v>       0.00000000       0.44444444       0.00000000 </v>
   <v>       0.04166667       0.44444444       0.00000000 </v>
   <v>       0.08333333       0.44444444       0.00000000 </v>
   <v>       0.12500000       0.44444444       0.00000000 </v>
   <v>       0.16666667       0.44444444       0.00000000 </v>
   <v>       0.20833333       0.44444444       0.00000000 </v>
   <v>       0.25000000       0.44444444       0.00000000 </v>
   <v>       0.29166667       0.44444444       0.00000000 </v>
   <v>       0.33333333       0.44444444       0.00000000 </v>
   <v>       0.37500000       0.44444444       0.00000000 </v>
   <v>       0.41666667       0.44444444       0.00000000 </v>
   <v>       0.45833333       0.44444444       0.00000000 </v>
   <v>       0.50000000       0.44444444       0.00000000 </v>
   <v>       0.00000000       0.47222222       0.00000000 </v>
   <v>       0.04166667       0.47222222       0.00000000 </v>
   <v>       0.08333333       0.47222222       0.00000000 </v>
   <v>       0.12500000       0.47222222       0.00000000 </v>
   <v>       0.16666667       0.47222222       0.00000000 </v>
   <v>       0.20833333       0.47222222       0.00000000 </v>
   <v>       0.25000000       0.47222222       0.00000000 </v>
   <v>       0.29166667       0.47222222       0.00000000 </v>
   <v>       0.33333333       0.47222222       0.00000000 </v>
   <v>       0.37500000       0.47222222       0.00000000 </v>
   <v>       0.41666667       0.47222222       0.00000000 </v>
   <v>       0.45833333       0.47222222       0.00000000 </v>
   <v>       0.50000000       0.47222222       0.00000000 </v>
   <v>       0.00000000       0.50000000       0.00000000 </v>
   <v>       0.04166667       0.50000000       0.00000000 </v>
   <v>       0.08333333       0.50000000       0.00000000 </v>
   <v>       0.12500000       0.50000000       0.00000000 </v>
   <v>       0.16666667       0.50000000       0.00000000 </v>
   <v>       0.20833333       0.50000000       0.00000000 </v>
   <v>       0.25000000       0.50000000       0.00000000 </v>
   <v>       0.29166667       0.50000000       0.00000000 </v>
   <v>       0.33333333       0.50000000       0.00000000 </v>
   <v>       0.37500000       0.50000000       0.00000000 </v>
   <v>       0.41666667       0.50000000       0.00000000 </v>
   <v>       0.45833333       0.50000000       0.00000000 </v>
   <v>       0.50000000       0.50000000       0.00000000 </v>
  </varray>
  <varray name="weights" >
   <v>       0.00115741 </v>
   <v>       0.00231481 </v>
   <v>       0.00231481 </v>
   <v>       0.00231481 </v>
   <v>       0.00231481 </v>
   <v>       0.00231481 </v>
   <v>       0.00231481 </v>
   <v>       0.00231481 </v>
   <v>       0.00231481 </v>
   <v>       0.00231481 </v>
   <v>       0.00231481 </v>
   <v>       0.00231481 </v>
   <v>       0.00115741 </v>
   <v>       0.00231481 </v>
   <v>       0.00462963 </v>
   <v>       0.00462963 </v>
   <v>       0.00462963 </v>
   <v>       0.00462963 </v>
   <v>       0.00462963 </v>
   <v>       0.00462963 </v>
   <v>       0.00462963 </v>
   <v>       0.00462963 </v>
   <v>       0.00462963 </v>
   <v>       0.00462963 </v>
   <v>       0.00462963 </v>
   <v>       0.00231481 </v>
   <v>       0.00231481 </v>
   <v>       0.00462963 </v>
   <v>       0.00462963 </v>
   <v>       0.00462963 </v>
   <v>       0.00462963 </v>
   <v>       0.00462963 </v>
   <v>       0.00462963 </v>
   <v>       0.00462963 </v>
   <v>       0.00462963 </v>
   <v>       0.00462963 </v>
   <v>       0.00462963 </v>
   <v>       0.00462963 </v>
   <v>       0.00231481 </v>
   <v>       0.00231481 </v>
   <v>       0.00462963 </v>
   <v>       0.00462963 </v>
   <v>       0.00462963 </v>
   <v>       0.00462963 </v>
   <v>       0.00462963 </v>
   <v>       0.00462963 </v>
   <v>       0.00462963 </v>
   <v>       0.00462963 </v>
   <v>       0.00462963 </v>
   <v>       0.00462963 </v>
   <v>       0.00462963 </v>
   <v>       0.00231481 </v>
   <v>       0.00231481 </v>
   <v>       0.00462963 </v>
   <v>       0.00462963 </v>
   <v>       0.00462963 </v>
   <v>       0.00462963 </v>
   <v>       0.00462963 </v>
   <v>       0.00462963 </v>
   <v>       0.00462963 </v>
   <v>       0.00462963 </v>
   <v>       0.00462963 </v>
   <v>       0.00462963 </v>
   <v>       0.00462963 </v>
   <v>       0.00231481 </v>
   <v>       0.00231481 </v>
   <v>       0.00462963 </v>
   <v>       0.00462963 </v>
   <v>       0.00462963 </v>
   <v>       0.00462963 </v>
   <v>       0.00462963 </v>
   <v>       0.00462963 </v>
   <v>       0.00462963 </v>
   <v>       0.00462963 </v>
   <v>       0.00462963 </v>
   <v>       0.00462963 </v>
   <v>       0.00462963 </v>
   <v>       0.00231481 </v>
   <v>       0.00231481 </v>
   <v>       0.00462963 </v>
   <v>       0.00462963 </v>
   <v>       0.00462963 </v>
   <v>       0.00462963 </v>
   <v>       0.00462963 </v>
   <v>       0.00462963 </v>
   <v>       0.00462963 </v>
   <v>       0.00462963 </v>
   <v>       0.00462963 </v>
   <v>       0.00462963 </v>
   <v>       0.00462963 </v>
   <v>       0.00231481 </v>
   <v>       0.00231481 </v>
   <v>       0.00462963 </v>
   <v>       0.00462963 </v>
   <v>       0.00462963 </v>
   <v>       0.00462963 </v>
   <v>       0.00462963 </v>
   <v>       0.00462963 </v>
   <v>       0.00462963 </v>
   <v>       0.00462963 </v>
   <v>       0.00462963 </v>
   <v>       0.00462963 </v>
   <v>       0.00462963 </v>
   <v>       0.00231481 </v>
   <v>       0.00231481 </v>
   <v>       0.00462963 </v>
   <v>       0.00462963 </v>
   <v>       0.00462963 </v>
   <v>       0.00462963 </v>
   <v>       0.00462963 </v>
   <v>       0.00462963 </v>
   <v>       0.00462963 </v>
   <v>       0.00462963 </v>
   <v>       0.00462963 </v>
   <v>       0.00462963 </v>
   <v>       0.00462963 </v>
   <v>       0.00231481 </v>
   <v>       0.00231481 </v>
   <v>       0.00462963 </v>
   <v>       0.00462963 </v>
   <v>       0.00462963 </v>
   <v>       0.00462963 </v>
   <v>       0.00462963 </v>
   <v>       0.00462963 </v>
   <v>       0.00462963 </v>
   <v>       0.00462963 </v>
   <v>       0.00462963 </v>
   <v>       0.00462963 </v>
   <v>       0.00462963 </v>
   <v>       0.00231481 </v>
   <v>       0.00231481 </v>
   <v>       0.00462963 </v>
   <v>       0.00462963 </v>
   <v>       0.00462963 </v>
   <v>       0.00462963 </v>
   <v>       0.00462963 </v>
   <v>       0.00462963 </v>
   <v>       0.00462963 </v>
   <v>       0.00462963 </v>
   <v>       0.00462963 </v>
   <v>       0.00462963 </v>
   <v>       0.00462963 </v>
   <v>       0.00231481 </v>
   <v>       0.00231481 </v>
   <v>       0.00462963 </v>
   <v>       0.00462963 </v>
   <v>       0.00462963 </v>
   <v>       0.00462963 </v>
   <v>       0.00462963 </v>
   <v>       0.00462963 </v>
   <v>       0.00462963 </v>
   <v>       0.00462963 </v>
   <v>       0.00462963 </v>
   <v>       0.00462963 </v>
   <v>       0.00462963 </v>
   <v>       0.00231481 </v>
   <v>       0.00231481 </v>
   <v>       0.00462963 </v>
   <v>       0.00462963 </v>
   <v>       0.00462963 </v>
   <v>       0.00462963 </v>
   <v>       0.00462963 </v>
   <v>       0.00462963 </v>
   <v>       0.00462963 </v>
   <v>       0.00462963 </v>
   <v>       0.00462963 </v>
   <v>       0.00462963 </v>
   <v>       0.00462963 </v>
   <v>       0.00231481 </v>
   <v>       0.00231481 </v>
   <v>       0.00462963 </v>
   <v>       0.00462963 </v>
   <v>       0.00462963 </v>
   <v>       0.00462963 </v>
   <v>       0.00462963 </v>
   <v>       0.00462963 </v>
   <v>       0.00462963 </v>
   <v>       0.00462963 </v>
   <v>       0.00462963 </v>
   <v>       0.00462963 </v>
   <v>       0.00462963 </v>
   <v>       0.00231481 </v>
   <v>       0.00231481 </v>
   <v>       0.00462963 </v>
   <v>       0.00462963 </v>
   <v>       0.00462963 </v>
   <v>       0.00462963 </v>
   <v>       0.00462963 </v>
   <v>       0.00462963 </v>
   <v>       0.00462963 </v>
   <v>       0.00462963 </v>
   <v>       0.00462963 </v>
   <v>       0.00462963 </v>
   <v>       0.00462963 </v>
   <v>       0.00231481 </v>
   <v>       0.00231481 </v>
   <v>       0.00462963 </v>
   <v>       0.00462963 </v>
   <v>       0.00462963 </v>
   <v>       0.00462963 </v>
   <v>       0.00462963 </v>
   <v>       0.00462963 </v>
   <v>       0.00462963 </v>
   <v>       0.00462963 </v>
   <v>       0.00462963 </v>
   <v>       0.00462963 </v>
   <v>       0.00462963 </v>
   <v>       0.00231481 </v>
   <v>       0.00231481 </v>
   <v>       0.00462963 </v>
   <v>       0.00462963 </v>
   <v>       0.00462963 </v>
   <v>       0.00462963 </v>
   <v>       0.00462963 </v>
   <v>       0.00462963 </v>
   <v>       0.00462963 </v>
   <v>       0.00462963 </v>
   <v>       0.00462963 </v>
   <v>       0.00462963 </v>
   <v>       0.00462963 </v>
   <v>       0.00231481 </v>
   <v>       0.00231481 </v>
   <v>       0.00462963 </v>
   <v>       0.00462963 </v>
   <v>       0.00462963 </v>
   <v>       0.00462963 </v>
   <v>       0.00462963 </v>
   <v>       0.00462963 </v>
   <v>       0.00462963 </v>
   <v>       0.00462963 </v>
   <v>       0.00462963 </v>
   <v>       0.00462963 </v>
   <v>       0.00462963 </v>
   <v>       0.00231481 </v>
   <v>       0.00115741 </v>
   <v>       0.00231481 </v>
   <v>       0.00231481 </v>
   <v>       0.00231481 </v>
   <v>       0.00231481 </v>
   <v>       0.00231481 </v>
   <v>       0.00231481 </v>
   <v>       0.00231481 </v>
   <v>       0.00231481 </v>
   <v>       0.00231481 </v>
   <v>       0.00231481 </v>
   <v>       0.00231481 </v>
   <v>       0.00115741 </v>
  </varray>
 </kpoints>
 <parameters>
  <separator name="general" >
   <i type="string" name="SYSTEM">gr</i>
   <i type="logical" name="LCOMPAT"> F  </i>
  </separator>
  <separator name="electronic" >
   <i type="string" name="PREC">accura</i>
   <i name="ENMAX">   2000.00000000</i>
   <i name="ENAUG">    644.87300000</i>
   <i name="EDIFF">      0.00000000</i>
   <i type="int" name="IALGO">    68</i>
   <i type="int" name="IWAVPR">    11</i>
   <i type="int" name="NBANDS">    12</i>
   <i name="NELECT">     16.00000000</i>
   <i type="int" name="TURBO">     0</i>
   <i type="int" name="IRESTART">     0</i>
   <i type="int" name="NREBOOT">     0</i>
   <i type="int" name="NMIN">     0</i>
   <i name="EREF">      0.00000000</i>
   <separator name="electronic smearing" >
    <i type="int" name="ISMEAR">     0</i>
    <i name="SIGMA">      0.05000000</i>
    <i name="KSPACING">      0.50000000</i>
    <i type="logical" name="KGAMMA"> T  </i>
   </separator>
   <separator name="electronic projectors" >
    <i type="logical" name="LREAL"> F  </i>
    <v name="ROPT">      0.00000000</v>
    <i type="int" name="LMAXPAW">  -100</i>
    <i type="int" name="LMAXMIX">     2</i>
    <i type="logical" name="NLSPLINE"> F  </i>
   </separator>
   <separator name="electronic startup" >
    <i type="int" name="ISTART">     0</i>
    <i type="int" name="ICHARG">     2</i>
    <i type="int" name="INIWAV">     1</i>
   </separator>
   <separator name="electronic spin" >
    <i type="int" name="ISPIN">     1</i>
    <i type="logical" name="LNONCOLLINEAR"> F  </i>
    <v name="MAGMOM">      1.00000000      1.00000000      1.00000000      1.00000000</v>
    <i name="NUPDOWN">     -1.00000000</i>
    <i type="logical" name="LSORBIT"> F  </i>
    <v name="SAXIS">      0.00000000      0.00000000      1.00000000</v>
    <i type="logical" name="LSPIRAL"> F  </i>
    <v name="QSPIRAL">      0.00000000      0.00000000      0.00000000</v>
    <i type="logical" name="LZEROZ"> F  </i>
   </separator>
   <separator name="electronic exchange-correlation" >
    <i type="logical" name="LASPH"> F  </i>
    <i type="logical" name="LMETAGGA"> F  </i>
   </separator>
   <separator name="electronic convergence" >
    <i type="int" name="NELM">   100</i>
    <i type="int" name="NELMDL">    -3</i>
    <i type="int" name="NELMIN">     5</i>
    <i name="ENINI">   2000.00000000</i>
    <separator name="electronic convergence detail" >
     <i type="logical" name="LDIAG"> T  </i>
     <i type="logical" name="LSUBROT"> F  </i>
     <i name="WEIMIN">      0.00100000</i>
     <i name="EBREAK">      0.00000000</i>
     <i name="DEPER">      0.30000000</i>
     <i type="int" name="NRMM">     4</i>
     <i name="TIME">      0.40000000</i>
    </separator>
   </separator>
   <separator name="electronic mixer" >
    <i name="AMIX">      0.40000000</i>
    <i name="BMIX">      1.00000000</i>
    <i name="AMIN">      0.10000000</i>
    <i name="AMIX_MAG">      1.60000000</i>
    <i name="BMIX_MAG">      1.00000000</i>
    <separator name="electronic mixer details" >
     <i type="int" name="IMIX">     4</i>
     <i type="int" name="MAXMIX">   -45</i>
     <i name="WC">    100.00000000</i>
     <i type="int" name="INIMIX">     1</i>
     <i type="int" name="MIXPRE">     1</i>
     <i type="int" name="MREMOVE">     5</i>
    </separator>
   </separator>
   <separator name="electronic dipolcorrection" >
    <i type="logical" name="LDIPOL"> F  </i>
    <i type="logical" name="LMONO"> F  </i>
    <i type="int" name="IDIPOL">     0</i>
    <i name="EPSILON">      1.00000000</i>
    <v name="DIPOL">   -100.00000000   -100.00000000   -100.00000000</v>
    <i name="EFIELD">      0.00000000</i>
   </separator>
  </separator>
  <separator name="grids" >
   <i type="int" name="NGX">    64</i>
   <i type="int" name="NGY">    40</i>
   <i type="int" name="NGZ">   288</i>
   <i type="int" name="NGXF">   128</i>
   <i type="int" name="NGYF">    80</i>
   <i type="int" name="NGZF">   576</i>
   <i type="logical" name="ADDGRID"> F  </i>
  </separator>
  <separator name="ionic" >
   <i type="int" name="NSW">   400</i>
   <i type="int" name="IBRION">     1</i>
   <i type="int" name="ISIF">     2</i>
   <i name="PSTRESS">      0.00000000</i>
   <i name="EDIFFG">     -0.00000100</i>
   <i type="int" name="NFREE">     0</i>
   <i name="POTIM">      0.50000000</i>
   <i name="SMASS">     -3.00000000</i>
   <i name="SCALEE">      1.00000000</i>
  </separator>
  <separator name="ionic md" >
   <i name="TEBEG">      0.00010000</i>
   <i name="TEEND">      0.00010000</i>
   <i type="int" name="NBLOCK">     1</i>
   <i type="int" name="KBLOCK">   400</i>
   <i type="int" name="NPACO">   256</i>
   <i name="APACO">     16.00000000</i>
  </separator>
  <separator name="symmetry" >
   <i type="int" name="ISYM">     2</i>
   <i name="SYMPREC">      0.00001000</i>
  </separator>
  <separator name="dos" >
   <i type="logical" name="LORBIT"> F  </i>
   <v name="RWIGS">     -1.00000000</v>
   <i type="int" name="NEDOS">   301</i>
   <i name="EMIN">     10.00000000</i>
   <i name="EMAX">    -10.00000000</i>
   <i name="EFERMI">      0.00000000</i>
  </separator>
  <separator name="writing" >
   <i type="int" name="NWRITE">     2</i>
   <i type="logical" name="LWAVE"> F  </i>
   <i type="logical" name="LCHARG"> F  </i>
   <i type="logical" name="LPARD"> F  </i>
   <i type="logical" name="LVTOT"> F  </i>
   <i type="logical" name="LVHAR"> F  </i>
   <i type="logical" name="LELF"> F  </i>
   <i type="logical" name="LOPTICS"> F  </i>
   <v name="STM">      0.00000000      0.00000000      0.00000000      0.00000000      0.00000000      0.00000000      0.00000000</v>
  </separator>
  <separator name="performance" >
   <i type="int" name="NPAR">     4</i>
   <i type="int" name="NSIM">     4</i>
   <i type="int" name="NBLK">    -1</i>
   <i type="logical" name="LPLANE"> T  </i>
   <i type="logical" name="LSCALAPACK"> F  </i>
   <i type="logical" name="LSCAAWARE"> F  </i>
   <i type="logical" name="LSCALU"> F  </i>
   <i type="logical" name="LASYNC"> F  </i>
   <i type="logical" name="LORBITALREAL"> F  </i>
  </separator>
  <separator name="miscellaneous" >
   <i type="int" name="IDIOT">     3</i>
   <i type="logical" name="LMUSIC"> F  </i>
   <v name="POMASS">     12.01100000</v>
   <v name="DARWINR">      0.00000000</v>
   <v name="DARWINV">      1.00000000</v>
   <i type="logical" name="LCORR"> T  </i>
  </separator>
  <i type="logical" name="GGA_COMPAT"> T  </i>
  <i type="logical" name="LBERRY"> F  </i>
  <i type="int" name="ICORELEVEL">     0</i>
  <i type="logical" name="LDAU"> F  </i>
  <i type="int" name="I_CONSTRAINED_M">     0</i>
  <separator name="electronic exchange-correlation" >
   <i type="string" name="GGA">--</i>
   <i type="int" name="VOSKOWN">     0</i>
   <i type="logical" name="LHFCALC"> F  </i>
   <i type="string" name="PRECFOCK"></i>
   <i type="logical" name="LSYMGRAD"> F  </i>
   <i type="logical" name="LHFONE"> F  </i>
   <i type="logical" name="LRHFCALC"> F  </i>
   <i type="logical" name="LTHOMAS"> F  </i>
   <i type="logical" name="LMODELHF"> F  </i>
   <i name="ENCUT4O">     -1.00000000</i>
   <i type="int" name="EXXOEP">     0</i>
   <i type="int" name="FOURORBIT">     0</i>
   <i name="AEXX">      0.00000000</i>
   <i name="HFALPHA">      0.00000000</i>
   <i name="MCALPHA">      0.00000000</i>
   <i name="ALDAX">      1.00000000</i>
   <i name="AGGAX">      1.00000000</i>
   <i name="ALDAC">      1.00000000</i>
   <i name="AGGAC">      1.00000000</i>
   <i type="int" name="NKREDX">     1</i>
   <i type="int" name="NKREDY">     1</i>
   <i type="int" name="NKREDZ">     1</i>
   <i type="logical" name="SHIFTRED"> F  </i>
   <i type="logical" name="ODDONLY"> F  </i>
   <i type="logical" name="EVENONLY"> F  </i>
   <i type="int" name="LMAXFOCK">     0</i>
   <i type="int" name="NMAXFOCKAE">     0</i>
   <i type="logical" name="LFOCKAEDFT"> F  </i>
   <i name="HFSCREEN">      0.00000000</i>
   <i name="HFSCREENC">      0.00000000</i>
   <i type="int" name="NBANDSGWLOW">     0</i>
  </separator>
  <separator name="vdW DFT" >
   <i type="logical" name="LUSE_VDW"> F  </i>
   <i name="Zab_VDW">     -0.84910000</i>
   <i name="PARAM1">      0.12340000</i>
   <i name="PARAM2">      1.00000000</i>
   <i name="PARAM3">      0.00000000</i>
  </separator>
  <separator name="model GW" >
   <i type="int" name="MODEL_GW">     0</i>
   <i name="MODEL_EPS0">     31.62568521</i>
   <i name="MODEL_ALPHA">      1.00000000</i>
  </separator>
  <separator name="linear response parameters" >
   <i type="logical" name="LEPSILON"> F  </i>
   <i type="logical" name="LRPA"> F  </i>
   <i type="logical" name="LNABLA"> F  </i>
   <i type="logical" name="LVEL"> F  </i>
   <i type="int" name="KINTER">     0</i>
   <i name="CSHIFT">      0.10000000</i>
   <i name="OMEGAMAX">     -1.00000000</i>
   <i name="DEG_THRESHOLD">      0.00200000</i>
  </separator>
  <separator name="orbital magnetization" >
   <i type="logical" name="NUCIND"> F  </i>
   <v name="MAGPOS">      0.00000000      0.00000000      0.00000000</v>
   <i type="logical" name="LNICSALL"> T  </i>
   <i type="logical" name="ORBITALMAG"> F  </i>
   <i type="logical" name="LMAGBLOCH"> F  </i>
   <i type="logical" name="LCHIMAG"> F  </i>
   <i type="logical" name="LGAUGE"> T  </i>
   <i type="int" name="MAGATOM">     0</i>
   <v name="MAGDIPOL">      0.00000000      0.00000000      0.00000000</v>
   <v name="AVECCONST">      0.00000000      0.00000000      0.00000000</v>
  </separator>
  <separator name="response functions" >
   <i type="logical" name="LADDER"> F  </i>
   <i type="logical" name="LFXC"> F  </i>
   <i type="logical" name="LHARTREE"> T  </i>
   <i type="int" name="IBSE">     0</i>
   <i type="logical" name="LTCTE"> F  </i>
   <i type="logical" name="LTETE"> F  </i>
   <i type="logical" name="LTRIPLET"> F  </i>
   <i type="logical" name="LFXCEPS"> F  </i>
   <i type="logical" name="LFXHEG"> F  </i>
   <i type="logical" name="L2ORDER"> F  </i>
   <i type="logical" name="LUSEW"> F  </i>
   <i name="ENCUTGW">     -2.00000000</i>
   <i name="ENCUTGWSOFT">     -2.00000000</i>
   <i name="ENCUTLF">     -1.00000000</i>
   <i type="int" name="LMAXMP2">    -1</i>
   <i name="SCISSOR">      0.00000000</i>
   <i type="int" name="NOMEGA">     0</i>
   <i type="int" name="NOMEGAR">     0</i>
   <i type="int" name="NBANDSGW">    -1</i>
   <i type="int" name="NBANDSO">    -1</i>
   <i type="int" name="NBANDSV">    -1</i>
   <i type="int" name="NELM">   100</i>
   <i type="int" name="DIM">     3</i>
   <i type="int" name="ANTIRES">     0</i>
   <i name="OMEGAMAX">    -30.00000000</i>
   <i name="OMEGAMIN">    -30.00000000</i>
   <i name="OMEGATL">   -200.00000000</i>
   <i type="int" name="OMEGAGRID">     0</i>
   <i name="CSHIFT">     -0.10000000</i>
   <i type="logical" name="SELFENERGY"> F  </i>
   <i type="logical" name="LSPECTRAL"> F  </i>
   <i type="logical" name="ODDONLYGW"> F  </i>
   <i type="logical" name="EVENONLYGW"> F  </i>
   <i type="int" name="NKREDLFX">     1</i>
   <i type="int" name="NKREDLFY">     1</i>
   <i type="int" name="NKREDLFZ">     1</i>
   <i type="int" name="MAXMEM">  1800</i>
   <i type="int" name="TELESCOPE">     0</i>
   <i type="int" name="TAUPAR">     1</i>
  </separator>
  <separator name="External order field" >
   <i name="OFIELD_KAPPA">      0.00000000</i>
   <v name="OFIELD_K">      0.00000000      0.00000000      0.00000000</v>
   <i name="OFIELD_Q6_NEAR">      0.00000000</i>
   <i name="OFIELD_Q6_FAR">      0.00000000</i>
   <i name="OFIELD_A">      0.00000000</i>
  </separator>
 </parameters>
 <atominfo>
  <atoms>       4 </atoms>
  <types>       1 </types>
  <array name="atoms" >
   <dimension dim="1">ion</dimension>
   <field type="string">element</field>
   <field type="int">atomtype</field>
   <set>
    <rc><c>C </c><c>   1</c></rc>
    <rc><c>C </c><c>   1</c></rc>
    <rc><c>C </c><c>   1</c></rc>
    <rc><c>C </c><c>   1</c></rc>
   </set>
  </array>
  <array name="atomtypes" >
   <dimension dim="1">type</dimension>
   <field type="int">atomspertype</field>
   <field type="string">element</field>
   <field>mass</field>
   <field>valence</field>
   <field type="string">pseudopotential</field>
   <set>
    <rc><c>   4</c><c>C </c><c>     12.01100000</c><c>      4.00000000</c><c> PAW_PBE C 08Apr2002                    </c></rc>
   </set>
  </array>
 </atominfo>
 <structure name="initialpos" >
  <crystal>
   <varray name="basis" >
    <v>       4.25193696       0.00000000       0.00000000 </v>
    <v>       0.00000000       2.54107520       0.00000000 </v>
    <v>       0.00000000       0.00000000      19.51391235 </v>
   </varray>
   <i name="volume">    210.83790140 </i>
   <varray name="rec_basis" >
    <v>       0.23518693       0.00000000       0.00000000 </v>
    <v>       0.00000000       0.39353420       0.00000000 </v>
    <v>       0.00000000       0.00000000       0.05124549 </v>
   </varray>
  </crystal>
  <varray name="positions" >
   <v>       0.00074775       0.00000000       0.00000000 </v>
   <v>       0.16591892       0.50000000       0.00000000 </v>
   <v>       0.50074775       0.50000000       0.00000000 </v>
   <v>       0.66591892       0.00000000       0.00000000 </v>
  </varray>
 </structure>
 <calculation>
  <scstep>
   <time name="dav">  320.96  321.55</time>
   <time name="total">  323.77  324.41</time>
   <energy>
    <i name="alphaZ">      6.18334092 </i>
    <i name="ewald">   2424.16520102 </i>
    <i name="hartreedc">  -2854.42130412 </i>
    <i name="XCdc">     54.76430445 </i>
    <i name="pawpsdc">    151.32577238 </i>
    <i name="pawaedc">   -155.92769107 </i>
    <i name="eentropy">     -0.00204782 </i>
    <i name="bandstr">    -29.67888111 </i>
    <i name="atom">    588.62352690 </i>
    <i name="e_fr_energy">    185.03222156 </i>
    <i name="e_wo_entrp">    185.03426938 </i>
    <i name="e_0_energy">    185.03324547 </i>
   </energy>
  </scstep>
  <scstep>
   <time name="dav">  490.11  490.23</time>
   <time name="total">  490.12  490.24</time>
   <energy>
    <i name="e_fr_energy">     -9.01056505 </i>
    <i name="e_wo_entrp">     -9.01011758 </i>
    <i name="e_0_energy">     -9.01034132 </i>
   </energy>
  </scstep>
  <scstep>
   <time name="dav">  376.70  377.08</time>
   <time name="total">  409.61  410.13</time>
   <energy>
    <i name="e_fr_energy">    -38.00339713 </i>
    <i name="e_wo_entrp">    -38.00339712 </i>
    <i name="e_0_energy">    -38.00339713 </i>
   </energy>
  </scstep>
  <scstep>
   <time name="diag">   87.20   87.22</time>
   <time name="diis">  360.16  360.24</time>
   <time name="orth">    3.10    3.11</time>
   <time name="total">  486.00  486.13</time>
   <energy>
    <i name="e_fr_energy">    -37.52670227 </i>
    <i name="e_wo_entrp">    -37.52670226 </i>
    <i name="e_0_energy">    -37.52670226 </i>
   </energy>
  </scstep>
  <scstep>
   <time name="diag">   87.17   87.19</time>
   <time name="diis">  357.36  357.65</time>
   <time name="orth">    3.08    3.08</time>
   <time name="total">  483.28  483.95</time>
   <energy>
    <i name="e_fr_energy">    -36.83798294 </i>
    <i name="e_wo_entrp">    -36.83798294 </i>
    <i name="e_0_energy">    -36.83798294 </i>
   </energy>
  </scstep>
  <scstep>
   <time name="diag">   87.15   87.19</time>
   <time name="diis">  392.07  392.14</time>
   <time name="orth">    3.11    3.11</time>
   <time name="total">  517.47  517.62</time>
   <energy>
    <i name="e_fr_energy">    -36.84083669 </i>
    <i name="e_wo_entrp">    -36.84083669 </i>
    <i name="e_0_energy">    -36.84083669 </i>
   </energy>
  </scstep>
  <scstep>
   <time name="diag">   87.26   87.29</time>
   <time name="diis">  355.95  356.22</time>
   <time name="orth">    3.08    3.08</time>
   <time name="total">  481.85  482.32</time>
   <energy>
    <i name="e_fr_energy">    -36.83214571 </i>
    <i name="e_wo_entrp">    -36.83214571 </i>
    <i name="e_0_energy">    -36.83214571 </i>
   </energy>
  </scstep>
  <scstep>
   <time name="diag">   87.05   87.22</time>
   <time name="diis">  357.54  357.96</time>
   <time name="orth">    3.08    3.08</time>
   <time name="total">  482.95  483.74</time>
   <energy>
    <i name="e_fr_energy">    -36.82751672 </i>
    <i name="e_wo_entrp">    -36.82751672 </i>
    <i name="e_0_energy">    -36.82751672 </i>
   </energy>
  </scstep>
  <scstep>
   <time name="diag">   86.71   87.16</time>
   <time name="diis">  350.64  351.36</time>
   <time name="orth">    3.10    3.10</time>
   <time name="total">  475.74  476.97</time>
   <energy>
    <i name="e_fr_energy">    -36.82738215 </i>
    <i name="e_wo_entrp">    -36.82738215 </i>
    <i name="e_0_energy">    -36.82738215 </i>
   </energy>
  </scstep>
  <scstep>
   <time name="diag">   87.13   87.15</time>
   <time name="diis">  352.55  352.61</time>
   <time name="orth">    3.08    3.08</time>
   <time name="total">  478.10  478.33</time>
   <energy>
    <i name="e_fr_energy">    -36.82729477 </i>
    <i name="e_wo_entrp">    -36.82729477 </i>
    <i name="e_0_energy">    -36.82729477 </i>
   </energy>
  </scstep>
  <scstep>
   <time name="diag">   87.18   87.21</time>
   <time name="diis">  352.79  354.30</time>
   <time name="orth">    3.08    3.08</time>
   <time name="total">  478.00  479.73</time>
   <energy>
    <i name="e_fr_energy">    -36.82950657 </i>
    <i name="e_wo_entrp">    -36.82950657 </i>
    <i name="e_0_energy">    -36.82950657 </i>
   </energy>
  </scstep>
  <scstep>
   <time name="diag">   86.72   87.16</time>
   <time name="diis">  353.00  354.70</time>
   <time name="orth">    3.08    3.08</time>
   <time name="total">  477.96  480.27</time>
   <energy>
    <i name="e_fr_energy">    -36.83000765 </i>
    <i name="e_wo_entrp">    -36.83000765 </i>
    <i name="e_0_energy">    -36.83000765 </i>
   </energy>
  </scstep>
  <scstep>
   <time name="diag">   87.13   87.15</time>
   <time name="diis">  358.88  360.10</time>
   <time name="orth">    3.08    3.08</time>
   <time name="total">  484.55  485.84</time>
   <energy>
    <i name="e_fr_energy">    -36.83027269 </i>
    <i name="e_wo_entrp">    -36.83027269 </i>
    <i name="e_0_energy">    -36.83027269 </i>
   </energy>
  </scstep>
  <scstep>
   <time name="diag">   87.13   87.15</time>
   <time name="diis">  355.96  356.05</time>
   <time name="orth">    3.10    3.10</time>
   <time name="total">  481.62  482.37</time>
   <energy>
    <i name="e_fr_energy">    -36.83035359 </i>
    <i name="e_wo_entrp">    -36.83035359 </i>
    <i name="e_0_energy">    -36.83035359 </i>
   </energy>
  </scstep>
  <scstep>
   <time name="diag">   86.80   87.17</time>
   <time name="diis">  352.59  353.95</time>
   <time name="orth">    3.10    3.10</time>
   <time name="total">  478.08  479.83</time>
   <energy>
    <i name="e_fr_energy">    -36.83036650 </i>
    <i name="e_wo_entrp">    -36.83036650 </i>
    <i name="e_0_energy">    -36.83036650 </i>
   </energy>
  </scstep>
  <scstep>
   <time name="diag">   87.18   87.23</time>
   <time name="diis">  351.50  351.57</time>
   <time name="orth">    3.08    3.08</time>
   <time name="total">  477.20  477.33</time>
   <energy>
    <i name="e_fr_energy">    -36.83038049 </i>
    <i name="e_wo_entrp">    -36.83038049 </i>
    <i name="e_0_energy">    -36.83038049 </i>
   </energy>
  </scstep>
  <scstep>
   <time name="diag">   87.16   87.19</time>
   <time name="diis">  357.80  358.18</time>
   <time name="orth">    3.08    3.10</time>
   <time name="total">  483.50  484.22</time>
   <energy>
    <i name="e_fr_energy">    -36.83038668 </i>
    <i name="e_wo_entrp">    -36.83038668 </i>
    <i name="e_0_energy">    -36.83038668 </i>
   </energy>
  </scstep>
  <scstep>
   <time name="diag">   86.72   87.15</time>
   <time name="diis">  348.98  350.69</time>
   <time name="orth">    3.08    3.08</time>
   <time name="total">  473.96  476.30</time>
   <energy>
    <i name="e_fr_energy">    -36.83038774 </i>
    <i name="e_wo_entrp">    -36.83038774 </i>
    <i name="e_0_energy">    -36.83038774 </i>
   </energy>
  </scstep>
  <scstep>
   <time name="diag">   86.65   87.05</time>
   <time name="diis">  341.11  341.58</time>
   <time name="orth">    3.10    3.10</time>
   <time name="total">  466.19  467.44</time>
   <energy>
    <i name="e_fr_energy">    -36.83038843 </i>
    <i name="e_wo_entrp">    -36.83038843 </i>
    <i name="e_0_energy">    -36.83038843 </i>
   </energy>
  </scstep>
  <scstep>
   <time name="diag">   87.05   87.07</time>
   <time name="diis">  273.44  273.49</time>
   <time name="orth">    3.10    3.10</time>
   <time name="total">  399.02  399.12</time>
   <energy>
    <i name="e_fr_energy">    -36.83038847 </i>
    <i name="e_wo_entrp">    -36.83038847 </i>
    <i name="e_0_energy">    -36.83038847 </i>
   </energy>
  </scstep>
  <scstep>
   <time name="diag">   87.00   87.03</time>
   <time name="diis">  263.12  263.17</time>
   <time name="orth">    3.08    3.08</time>
   <time name="total">  388.57  388.73</time>
   <energy>
    <i name="e_fr_energy">    -36.83038848 </i>
    <i name="e_wo_entrp">    -36.83038848 </i>
    <i name="e_0_energy">    -36.83038848 </i>
   </energy>
  </scstep>
  <scstep>
   <time name="diag">   87.06   87.08</time>
   <time name="diis">  241.97  242.01</time>
   <time name="orth">    3.10    3.10</time>
   <time name="total">  334.80  334.92</time>
   <energy>
    <i name="alphaZ">      6.18334092 </i>
    <i name="ewald">   2424.16520102 </i>
    <i name="hartreedc">  -2918.51267018 </i>
    <i name="XCdc">     57.06990228 </i>
    <i name="pawpsdc">    267.29737925 </i>
    <i name="pawaedc">   -272.40204640 </i>
    <i name="eentropy">     -0.00000000 </i>
    <i name="bandstr">   -189.25502228 </i>
    <i name="atom">    588.62352690 </i>
    <i name="e_fr_energy">    -36.83038848 </i>
    <i name="e_wo_entrp">    -36.83038848 </i>
    <i name="e_0_energy">    -36.83038848 </i>
   </energy>
  </scstep>
  <structure>
   <crystal>
    <varray name="basis" >
     <v>       4.25193696       0.00000000       0.00000000 </v>
     <v>       0.00000000       2.54107520       0.00000000 </v>
     <v>       0.00000000       0.00000000      19.51391235 </v>
    </varray>
    <i name="volume">    210.83790140 </i>
    <varray name="rec_basis" >
     <v>       0.23518693       0.00000000       0.00000000 </v>
     <v>       0.00000000       0.39353420       0.00000000 </v>
     <v>       0.00000000       0.00000000       0.05124549 </v>
    </varray>
   </crystal>
   <varray name="positions" >
    <v>       0.00074775       0.00000000       0.00000000 </v>
    <v>       0.16591892       0.50000000       0.00000000 </v>
    <v>       0.50074775       0.50000000       0.00000000 </v>
    <v>       0.66591892       0.00000000       0.00000000 </v>
   </varray>
  </structure>
  <varray name="forces" >
   <v>      -0.00144918       0.00000000       0.00000000 </v>
   <v>       0.00144918      -0.00000000       0.00000000 </v>
   <v>      -0.00144918       0.00000000       0.00000000 </v>
   <v>       0.00144918      -0.00000000       0.00000000 </v>
  </varray>
  <varray name="stress" >
   <v>      -0.01120839       0.00000000       0.00000000 </v>
   <v>       0.00000000     -48.52991128       0.00000000 </v>
   <v>       0.00000000       0.00000000      -0.01023354 </v>
  </varray>
  <energy>
   <i name="e_fr_energy">    -36.83038848 </i>
   <i name="e_wo_entrp">    -36.83038848 </i>
   <i name="e_0_energy">     -0.00000000 </i>
  </energy>
  <time name="totalsc">10155.2010172.99</time>
 </calculation>
 <calculation>
  <scstep>
   <time name="dav">  339.59  341.23</time>
   <time name="total">  374.74  376.57</time>
   <energy>
    <i name="alphaZ">      6.18334092 </i>
    <i name="ewald">   2424.16696740 </i>
    <i name="hartreedc">  -2918.51343986 </i>
    <i name="XCdc">     57.06995276 </i>
    <i name="pawpsdc">    267.29738644 </i>
    <i name="pawaedc">   -272.40205349 </i>
    <i name="eentropy">     -0.00000000 </i>
    <i name="bandstr">   -189.25606894 </i>
    <i name="atom">    588.62352690 </i>
    <i name="e_fr_energy">    -36.83038787 </i>
    <i name="e_wo_entrp">    -36.83038787 </i>
    <i name="e_0_energy">    -36.83038787 </i>
   </energy>
  </scstep>
  <scstep>
   <time name="diag">   86.29   87.09</time>
   <time name="diis">  350.75  351.89</time>
   <time name="orth">    3.10    3.10</time>
   <time name="total">  475.30  477.31</time>
   <energy>
    <i name="e_fr_energy">    -36.83038792 </i>
    <i name="e_wo_entrp">    -36.83038792 </i>
    <i name="e_0_energy">    -36.83038792 </i>
   </energy>
  </scstep>
  <scstep>
   <time name="diag">   86.93   87.02</time>
   <time name="diis">  356.02  356.43</time>
   <time name="orth">    3.08    3.08</time>
   <time name="total">  481.47  482.01</time>
   <energy>
    <i name="e_fr_energy">    -36.83038791 </i>
    <i name="e_wo_entrp">    -36.83038791 </i>
    <i name="e_0_energy">    -36.83038791 </i>
   </energy>
  </scstep>
  <scstep>
   <time name="diag">   86.97   87.05</time>
   <time name="diis">  356.81  359.52</time>
   <time name="orth">    3.08    3.08</time>
   <time name="total">  481.67  484.66</time>
   <energy>
    <i name="e_fr_energy">    -36.83038790 </i>
    <i name="e_wo_entrp">    -36.83038790 </i>
    <i name="e_0_energy">    -36.83038790 </i>
   </energy>
  </scstep>
  <scstep>
   <time name="diag">   86.49   87.12</time>
   <time name="diis">  292.35  295.35</time>
   <time name="orth">    3.08    3.08</time>
   <time name="total">  416.69  420.61</time>
   <energy>
    <i name="e_fr_energy">    -36.83038791 </i>
    <i name="e_wo_entrp">    -36.83038790 </i>
    <i name="e_0_energy">    -36.83038790 </i>
   </energy>
  </scstep>
  <scstep>
   <time name="diag">   86.28   87.12</time>
   <time name="diis">  235.59  236.93</time>
   <time name="orth">    3.08    3.10</time>
   <time name="total">  360.11  362.50</time>
   <energy>
    <i name="e_fr_energy">    -36.83038791 </i>
    <i name="e_wo_entrp">    -36.83038790 </i>
    <i name="e_0_energy">    -36.83038790 </i>
   </energy>
  </scstep>
  <scstep>
   <time name="diag">   86.66   87.07</time>
   <time name="diis">  235.10  236.58</time>
   <time name="orth">    3.08    3.08</time>
   <time name="total">  327.45  329.48</time>
   <energy>
    <i name="alphaZ">      6.18334092 </i>
    <i name="ewald">   2424.16696740 </i>
    <i name="hartreedc">  -2918.51416476 </i>
    <i name="XCdc">     57.06998391 </i>
    <i name="pawpsdc">    267.30045853 </i>
    <i name="pawaedc">   -272.40513944 </i>
    <i name="eentropy">     -0.00000000 </i>
    <i name="bandstr">   -189.25536138 </i>
    <i name="atom">    588.62352690 </i>
    <i name="e_fr_energy">    -36.83038791 </i>
    <i name="e_wo_entrp">    -36.83038790 </i>
    <i name="e_0_energy">    -36.83038790 </i>
   </energy>
  </scstep>
  <structure>
   <crystal>
    <varray name="basis" >
     <v>       4.25193696       0.00000000       0.00000000 </v>
     <v>       0.00000000       2.54107520       0.00000000 </v>
     <v>       0.00000000       0.00000000      19.51391235 </v>
    </varray>
    <i name="volume">    210.83790140 </i>
    <varray name="rec_basis" >
     <v>       0.23518693       0.00000000       0.00000000 </v>
     <v>       0.00000000       0.39353420       0.00000000 </v>
     <v>       0.00000000       0.00000000       0.05124549 </v>
    </varray>
   </crystal>
   <varray name="positions" >
    <v>       0.00073130       0.00000000       0.00000000 </v>
    <v>       0.16593536       0.50000000       0.00000000 </v>
    <v>       0.50073130       0.50000000       0.00000000 </v>
    <v>       0.66593536      -0.00000000       0.00000000 </v>
   </varray>
  </structure>
  <varray name="forces" >
   <v>       0.00572285      -0.00000000      -0.00000000 </v>
   <v>      -0.00572285       0.00000000       0.00000000 </v>
   <v>       0.00572285       0.00000000      -0.00000000 </v>
   <v>      -0.00572285      -0.00000000       0.00000000 </v>
  </varray>
  <varray name="stress" >
   <v>       0.01827308       0.00000000       0.00000000 </v>
   <v>       0.00000000     -48.54557085       0.00000000 </v>
   <v>       0.00000000       0.00000000      -0.01004379 </v>
  </varray>
  <energy>
   <i name="e_fr_energy">    -36.83038791 </i>
   <i name="e_wo_entrp">    -36.83038790 </i>
   <i name="e_0_energy">     -0.00000000 </i>
  </energy>
  <time name="totalsc"> 3020.40 3036.96</time>
 </calculation>
 <calculation>
  <scstep>
   <time name="dav">  350.57  352.65</time>
   <time name="total">  385.69  388.19</time>
   <energy>
    <i name="alphaZ">      6.18334092 </i>
    <i name="ewald">   2424.16555739 </i>
    <i name="hartreedc">  -2918.51355957 </i>
    <i name="XCdc">     57.06994351 </i>
    <i name="pawpsdc">    267.30044807 </i>
    <i name="pawaedc">   -272.40512894 </i>
    <i name="eentropy">     -0.00000000 </i>
    <i name="bandstr">   -189.25451683 </i>
    <i name="atom">    588.62352690 </i>
    <i name="e_fr_energy">    -36.83038854 </i>
    <i name="e_wo_entrp">    -36.83038854 </i>
    <i name="e_0_energy">    -36.83038854 </i>
   </energy>
  </scstep>
  <scstep>
   <time name="diag">   86.28   87.18</time>
   <time name="diis">  349.33  352.75</time>
   <time name="orth">    3.08    3.10</time>
   <time name="total">  473.66  478.30</time>
   <energy>
    <i name="e_fr_energy">    -36.83038856 </i>
    <i name="e_wo_entrp">    -36.83038856 </i>
    <i name="e_0_energy">    -36.83038856 </i>
   </energy>
  </scstep>
  <scstep>
   <time name="diag">   86.73   87.10</time>
   <time name="diis">  352.41  356.04</time>
   <time name="orth">    3.08    3.10</time>
   <time name="total">  477.44  481.91</time>
   <energy>
    <i name="e_fr_energy">    -36.83038853 </i>
    <i name="e_wo_entrp">    -36.83038853 </i>
    <i name="e_0_energy">    -36.83038853 </i>
   </energy>
  </scstep>
  <scstep>
   <time name="diag">   86.18   87.17</time>
   <time name="diis">  357.26  360.63</time>
   <time name="orth">    3.08    3.08</time>
   <time name="total">  481.33  486.07</time>
   <energy>
    <i name="e_fr_energy">    -36.83038853 </i>
    <i name="e_wo_entrp">    -36.83038853 </i>
    <i name="e_0_energy">    -36.83038853 </i>
   </energy>
  </scstep>
  <scstep>
   <time name="diag">   86.70   87.10</time>
   <time name="diis">  268.09  269.87</time>
   <time name="orth">    3.08    3.08</time>
   <time name="total">  393.26  395.52</time>
   <energy>
    <i name="e_fr_energy">    -36.83038853 </i>
    <i name="e_wo_entrp">    -36.83038853 </i>
    <i name="e_0_energy">    -36.83038853 </i>
   </energy>
  </scstep>
  <scstep>
   <time name="diag">   86.59   87.12</time>
   <time name="diis">  232.14  233.92</time>
   <time name="orth">    3.08    3.08</time>
   <time name="total">  324.50  326.87</time>
   <energy>
    <i name="alphaZ">      6.18334092 </i>
    <i name="ewald">   2424.16555739 </i>
    <i name="hartreedc">  -2918.51303606 </i>
    <i name="XCdc">     57.06991995 </i>
    <i name="pawpsdc">    267.29801764 </i>
    <i name="pawaedc">   -272.40268788 </i>
    <i name="eentropy">     -0.00000000 </i>
    <i name="bandstr">   -189.25502740 </i>
    <i name="atom">    588.62352690 </i>
    <i name="e_fr_energy">    -36.83038853 </i>
    <i name="e_wo_entrp">    -36.83038853 </i>
    <i name="e_0_energy">    -36.83038853 </i>
   </energy>
  </scstep>
  <structure>
   <crystal>
    <varray name="basis" >
     <v>       4.25193696       0.00000000       0.00000000 </v>
     <v>       0.00000000       2.54107520       0.00000000 </v>
     <v>       0.00000000       0.00000000      19.51391235 </v>
    </varray>
    <i name="volume">    210.83790140 </i>
    <varray name="rec_basis" >
     <v>       0.23518693       0.00000000       0.00000000 </v>
     <v>       0.00000000       0.39353420       0.00000000 </v>
     <v>       0.00000000       0.00000000       0.05124549 </v>
    </varray>
   </crystal>
   <varray name="positions" >
    <v>       0.00074442       0.00000000      -0.00000000 </v>
    <v>       0.16592224       0.50000000       0.00000000 </v>
    <v>       0.50074442       0.50000000      -0.00000000 </v>
    <v>       0.66592224      -0.00000000       0.00000000 </v>
   </varray>
  </structure>
  <varray name="forces" >
   <v>       0.00000908      -0.00000000       0.00000000 </v>
   <v>      -0.00000908       0.00000000      -0.00000000 </v>
   <v>       0.00000908       0.00000000       0.00000000 </v>
   <v>      -0.00000908      -0.00000000      -0.00000000 </v>
  </varray>
  <varray name="stress" >
   <v>      -0.00511430       0.00000000       0.00000000 </v>
   <v>       0.00000000     -48.53320590       0.00000000 </v>
   <v>       0.00000000       0.00000000      -0.01016848 </v>
  </varray>
  <energy>
   <i name="e_fr_energy">    -36.83038853 </i>
   <i name="e_wo_entrp">    -36.83038853 </i>
   <i name="e_0_energy">     -0.00000000 </i>
  </energy>
  <time name="totalsc"> 2639.25 2661.71</time>
 </calculation>
 <calculation>
  <scstep>
   <time name="dav">  287.22  288.13</time>
   <time name="total">  322.43  323.51</time>
   <energy>
    <i name="alphaZ">      6.18334092 </i>
    <i name="ewald">   2424.16555515 </i>
    <i name="hartreedc">  -2918.51301891 </i>
    <i name="XCdc">     57.06991940 </i>
    <i name="pawpsdc">    267.29801079 </i>
    <i name="pawaedc">   -272.40268085 </i>
    <i name="eentropy">     -0.00000000 </i>
    <i name="bandstr">   -189.25504194 </i>
    <i name="atom">    588.62352690 </i>
    <i name="e_fr_energy">    -36.83038853 </i>
    <i name="e_wo_entrp">    -36.83038853 </i>
    <i name="e_0_energy">    -36.83038853 </i>
   </energy>
  </scstep>
  <scstep>
   <time name="diag">   87.16   87.18</time>
   <time name="diis">  206.09  206.13</time>
   <time name="orth">    3.10    3.10</time>
   <time name="total">  332.23  332.31</time>
   <energy>
    <i name="e_fr_energy">    -36.83038853 </i>
    <i name="e_wo_entrp">    -36.83038853 </i>
    <i name="e_0_energy">    -36.83038853 </i>
   </energy>
  </scstep>
  <scstep>
   <time name="diag">   86.47   87.15</time>
   <time name="diis">  204.25  205.75</time>
   <time name="orth">    3.08    3.08</time>
   <time name="total">  328.79  331.10</time>
   <energy>
    <i name="e_fr_energy">    -36.83038853 </i>
    <i name="e_wo_entrp">    -36.83038853 </i>
    <i name="e_0_energy">    -36.83038853 </i>
   </energy>
  </scstep>
  <scstep>
   <time name="diag">   86.76   87.20</time>
   <time name="diis">  196.97  198.59</time>
   <time name="orth">    3.08    3.10</time>
   <time name="total">  322.10  324.40</time>
   <energy>
    <i name="e_fr_energy">    -36.83038853 </i>
    <i name="e_wo_entrp">    -36.83038853 </i>
    <i name="e_0_energy">    -36.83038853 </i>
   </energy>
  </scstep>
  <scstep>
   <time name="diag">   86.63   87.11</time>
   <time name="diis">  191.54  193.08</time>
   <time name="orth">    3.07    3.10</time>
   <time name="total">  283.97  286.02</time>
   <energy>
    <i name="alphaZ">      6.18334092 </i>
    <i name="ewald">   2424.16555515 </i>
    <i name="hartreedc">  -2918.51299253 </i>
    <i name="XCdc">     57.06991925 </i>
    <i name="pawpsdc">    267.29801973 </i>
    <i name="pawaedc">   -272.40268985 </i>
    <i name="eentropy">     -0.00000000 </i>
    <i name="bandstr">   -189.25506811 </i>
    <i name="atom">    588.62352690 </i>
    <i name="e_fr_energy">    -36.83038853 </i>
    <i name="e_wo_entrp">    -36.83038853 </i>
    <i name="e_0_energy">    -36.83038853 </i>
   </energy>
  </scstep>
  <structure>
   <crystal>
    <varray name="basis" >
     <v>       4.25193696       0.00000000       0.00000000 </v>
     <v>       0.00000000       2.54107520       0.00000000 </v>
     <v>       0.00000000       0.00000000      19.51391235 </v>
    </varray>
    <i name="volume">    210.83790140 </i>
    <varray name="rec_basis" >
     <v>       0.23518693       0.00000000       0.00000000 </v>
     <v>       0.00000000       0.39353420       0.00000000 </v>
     <v>       0.00000000       0.00000000       0.05124549 </v>
    </varray>
   </crystal>
   <varray name="positions" >
    <v>       0.00074445       0.00000000       0.00000000 </v>
    <v>       0.16592222       0.50000000      -0.00000000 </v>
    <v>       0.50074445       0.50000000       0.00000000 </v>
    <v>       0.66592222      -0.00000000      -0.00000000 </v>
   </varray>
  </structure>
  <varray name="forces" >
   <v>      -0.00001387      -0.00000000       0.00000000 </v>
   <v>       0.00001387       0.00000000       0.00000000 </v>
   <v>      -0.00001387       0.00000000       0.00000000 </v>
   <v>       0.00001387      -0.00000000      -0.00000000 </v>
  </varray>
  <varray name="stress" >
   <v>      -0.00530013       0.00000000       0.00000000 </v>
   <v>       0.00000000     -48.53302361       0.00000000 </v>
   <v>       0.00000000       0.00000000      -0.01011408 </v>
  </varray>
  <energy>
   <i name="e_fr_energy">    -36.83038853 </i>
   <i name="e_wo_entrp">    -36.83038853 </i>
   <i name="e_0_energy">     -0.00000000 </i>
  </energy>
  <time name="totalsc"> 1692.69 1701.24</time>
 </calculation>
 <calculation>
  <scstep>
   <time name="dav">  275.95  278.34</time>
   <time name="total">  311.28  314.01</time>
   <energy>
    <i name="alphaZ">      6.18334092 </i>
    <i name="ewald">   2424.16555651 </i>
    <i name="hartreedc">  -2918.51299180 </i>
    <i name="XCdc">     57.06991927 </i>
    <i name="pawpsdc">    267.29801997 </i>
    <i name="pawaedc">   -272.40269008 </i>
    <i name="eentropy">     -0.00000000 </i>
    <i name="bandstr">   -189.25507021 </i>
    <i name="atom">    588.62352690 </i>
    <i name="e_fr_energy">    -36.83038853 </i>
    <i name="e_wo_entrp">    -36.83038853 </i>
    <i name="e_0_energy">    -36.83038853 </i>
   </energy>
  </scstep>
  <scstep>
   <time name="diag">   86.33   87.16</time>
   <time name="diis">  162.40  163.25</time>
   <time name="orth">    3.09    3.10</time>
   <time name="total">  287.37  289.29</time>
   <energy>
    <i name="e_fr_energy">    -36.83038853 </i>
    <i name="e_wo_entrp">    -36.83038853 </i>
    <i name="e_0_energy">    -36.83038853 </i>
   </energy>
  </scstep>
  <scstep>
   <time name="diag">   86.36   87.26</time>
   <time name="diis">  159.63  160.99</time>
   <time name="orth">    3.09    3.11</time>
   <time name="total">  284.55  286.99</time>
   <energy>
    <i name="e_fr_energy">    -36.83038853 </i>
    <i name="e_wo_entrp">    -36.83038853 </i>
    <i name="e_0_energy">    -36.83038853 </i>
   </energy>
  </scstep>
  <scstep>
   <time name="diag">   86.36   87.16</time>
   <time name="diis">  158.58  160.05</time>
   <time name="orth">    3.08    3.08</time>
   <time name="total">  283.41  286.01</time>
   <energy>
    <i name="e_fr_energy">    -36.83038853 </i>
    <i name="e_wo_entrp">    -36.83038853 </i>
    <i name="e_0_energy">    -36.83038853 </i>
   </energy>
  </scstep>
  <scstep>
   <time name="diag">   86.40   87.17</time>
   <time name="diis">  157.78  159.36</time>
   <time name="orth">    3.08    3.08</time>
   <time name="total">  249.97  252.35</time>
   <energy>
    <i name="alphaZ">      6.18334092 </i>
    <i name="ewald">   2424.16555651 </i>
    <i name="hartreedc">  -2918.51299390 </i>
    <i name="XCdc">     57.06991937 </i>
    <i name="pawpsdc">    267.29802402 </i>
    <i name="pawaedc">   -272.40269416 </i>
    <i name="eentropy">     -0.00000000 </i>
    <i name="bandstr">   -189.25506818 </i>
    <i name="atom">    588.62352690 </i>
    <i name="e_fr_energy">    -36.83038853 </i>
    <i name="e_wo_entrp">    -36.83038853 </i>
    <i name="e_0_energy">    -36.83038853 </i>
   </energy>
  </scstep>
  <structure>
   <crystal>
    <varray name="basis" >
     <v>       4.25193696       0.00000000       0.00000000 </v>
     <v>       0.00000000       2.54107520       0.00000000 </v>
     <v>       0.00000000       0.00000000      19.51391235 </v>
    </varray>
    <i name="volume">    210.83790140 </i>
    <varray name="rec_basis" >
     <v>       0.23518693       0.00000000       0.00000000 </v>
     <v>       0.00000000       0.39353420       0.00000000 </v>
     <v>       0.00000000       0.00000000       0.05124549 </v>
    </varray>
   </crystal>
   <varray name="positions" >
    <v>       0.00074443       0.00000000       0.00000000 </v>
    <v>       0.16592223       0.50000000      -0.00000000 </v>
    <v>       0.50074443       0.50000000       0.00000000 </v>
    <v>       0.66592223      -0.00000000      -0.00000000 </v>
   </varray>
  </structure>
  <varray name="forces" >
   <v>      -0.00000087       0.00000000       0.00000000 </v>
   <v>       0.00000087       0.00000000      -0.00000000 </v>
   <v>      -0.00000087      -0.00000000       0.00000000 </v>
   <v>       0.00000087       0.00000000      -0.00000000 </v>
  </varray>
  <varray name="stress" >
   <v>      -0.00523528       0.00000000       0.00000000 </v>
   <v>       0.00000000     -48.53308180       0.00000000 </v>
   <v>       0.00000000       0.00000000      -0.01009845 </v>
  </varray>
  <energy>
   <i name="e_fr_energy">    -36.83038853 </i>
   <i name="e_wo_entrp">    -36.83038853 </i>
   <i name="e_0_energy">     -0.00000000 </i>
  </energy>
  <time name="totalsc"> 1512.90 1525.82</time>
  <eigenvalues>
   <array>
    <dimension dim="1">band</dimension>
    <dimension dim="2">kpoint</dimension>
    <dimension dim="3">spin</dimension>
    <field>eigene</field>
    <field>occ</field>
    <set>
     <set comment="spin 1">
      <set comment="kpoint 1">
       <r>  -22.0482    1.0000 </r>
       <r>  -16.6438    1.0000 </r>
       <r>  -15.8453    1.0000 </r>
       <r>  -10.2003    1.0000 </r>
       <r>   -9.5282    1.0000 </r>
       <r>   -6.0234    1.0000 </r>
       <r>   -5.7392    1.0000 </r>
       <r>   -4.8651    1.0000 </r>
       <r>   -1.1600    0.0000 </r>
       <r>    0.5488    0.0000 </r>
       <r>    1.3463    0.0000 </r>
       <r>    1.7419    0.0000 </r>
      </set>
      <set comment="kpoint 2">
       <r>  -22.0378    1.0000 </r>
       <r>  -16.8473    1.0000 </r>
       <r>  -15.6269    1.0000 </r>
       <r>  -10.1880    1.0000 </r>
       <r>   -9.5178    1.0000 </r>
       <r>   -6.0474    1.0000 </r>
       <r>   -5.7789    1.0000 </r>
       <r>   -4.9361    1.0000 </r>
       <r>   -1.0745    0.0000 </r>
       <r>    0.5629    0.0000 </r>
       <r>    1.3605    0.0000 </r>
       <r>    1.7563    0.0000 </r>
      </set>
      <set comment="kpoint 3">
       <r>  -22.0066    1.0000 </r>
       <r>  -17.2197    1.0000 </r>
       <r>  -15.2098    1.0000 </r>
       <r>  -10.1511    1.0000 </r>
       <r>   -9.4865    1.0000 </r>
       <r>   -6.1179    1.0000 </r>
       <r>   -5.8965    1.0000 </r>
       <r>   -5.1312    1.0000 </r>
       <r>   -0.8359    0.0000 </r>
       <r>    0.6052    0.0000 </r>
       <r>    1.4032    0.0000 </r>
       <r>    1.7995    0.0000 </r>
      </set>
      <set comment="kpoint 4">
       <r>  -21.9547    1.0000 </r>
       <r>  -17.6155    1.0000 </r>
       <r>  -14.7396    1.0000 </r>
       <r>  -10.0896    1.0000 </r>
       <r>   -9.4344    1.0000 </r>
       <r>   -6.2311    1.0000 </r>
       <r>   -6.0881    1.0000 </r>
       <r>   -5.4126    1.0000 </r>
       <r>   -0.4826    0.0000 </r>
       <r>    0.6756    0.0000 </r>
       <r>    1.4743    0.0000 </r>
       <r>    1.8715    0.0000 </r>
      </set>
      <set comment="kpoint 5">
       <r>  -21.8820    1.0000 </r>
       <r>  -18.0070    1.0000 </r>
       <r>  -14.2448    1.0000 </r>
       <r>  -10.0036    1.0000 </r>
       <r>   -9.3619    1.0000 </r>
       <r>   -6.3810    1.0000 </r>
       <r>   -6.3476    1.0000 </r>
       <r>   -5.7444    1.0000 </r>
       <r>   -0.0515    0.0000 </r>
       <r>    0.7741    0.0000 </r>
       <r>    1.5737    0.0000 </r>
       <r>    1.9723    0.0000 </r>
      </set>
      <set comment="kpoint 6">
       <r>  -21.7886    1.0000 </r>
       <r>  -18.3865    1.0000 </r>
       <r>  -13.7337    1.0000 </r>
       <r>   -9.8933    1.0000 </r>
       <r>   -9.2694    1.0000 </r>
       <r>   -6.6675    1.0000 </r>
       <r>   -6.5609    1.0000 </r>
       <r>   -6.1013    1.0000 </r>
       <r>    0.4310    0.0000 </r>
       <r>    0.9007    0.0000 </r>
       <r>    1.7016    0.0000 </r>
       <r>    2.1019    0.0000 </r>
      </set>
      <set comment="kpoint 7">
       <r>  -21.6747    1.0000 </r>
       <r>  -18.7509    1.0000 </r>
       <r>  -13.2102    1.0000 </r>
       <r>   -9.7588    1.0000 </r>
       <r>   -9.1572    1.0000 </r>
       <r>   -7.0399    1.0000 </r>
       <r>   -6.7635    1.0000 </r>
       <r>   -6.4671    1.0000 </r>
       <r>    0.9471    0.0000 </r>
       <r>    1.0555    0.0000 </r>
       <r>    1.8577    0.0000 </r>
       <r>    2.2602    0.0000 </r>
      </set>
      <set comment="kpoint 8">
       <r>  -21.5402    1.0000 </r>
       <r>  -19.0987    1.0000 </r>
       <r>  -12.6771    1.0000 </r>
       <r>   -9.6005    1.0000 </r>
       <r>   -9.0261    1.0000 </r>
       <r>   -7.4565    1.0000 </r>
       <r>   -6.9820    1.0000 </r>
       <r>   -6.8315    1.0000 </r>
       <r>    1.2383    0.0000 </r>
       <r>    1.4844    0.0000 </r>
       <r>    2.0422    0.0000 </r>
       <r>    2.4474    0.0000 </r>
      </set>
      <set comment="kpoint 9">
       <r>  -21.3852    1.0000 </r>
       <r>  -19.4290    1.0000 </r>
       <r>  -12.1367    1.0000 </r>
       <r>   -9.4185    1.0000 </r>
       <r>   -8.8768    1.0000 </r>
       <r>   -7.9097    1.0000 </r>
       <r>   -7.2102    1.0000 </r>
       <r>   -7.1881    1.0000 </r>
       <r>    1.4491    0.0000 </r>
       <r>    2.0338    0.0000 </r>
       <r>    2.2548    0.0000 </r>
       <r>    2.6633    0.0000 </r>
      </set>
      <set comment="kpoint 10">
       <r>  -21.2100    1.0000 </r>
       <r>  -19.7410    1.0000 </r>
       <r>  -11.5916    1.0000 </r>
       <r>   -9.2134    1.0000 </r>
       <r>   -8.7104    1.0000 </r>
       <r>   -8.3922    1.0000 </r>
       <r>   -7.5322    1.0000 </r>
       <r>   -7.4426    1.0000 </r>
       <r>    1.6879    0.0000 </r>
       <r>    2.4954    0.0000 </r>
       <r>    2.5878    0.0000 </r>
       <r>    2.9080    0.0000 </r>
      </set>
      <set comment="kpoint 11">
       <r>  -21.0145    1.0000 </r>
       <r>  -20.0344    1.0000 </r>
       <r>  -11.0442    1.0000 </r>
       <r>   -8.9855    1.0000 </r>
       <r>   -8.8976    1.0000 </r>
       <r>   -8.5280    1.0000 </r>
       <r>   -7.8610    1.0000 </r>
       <r>   -7.6745    1.0000 </r>
       <r>    1.9546    0.0000 </r>
       <r>    2.7638    0.0000 </r>
       <r>    3.1376    0.0000 </r>
       <r>    3.1814    0.0000 </r>
      </set>
      <set comment="kpoint 12">
       <r>  -20.7990    1.0000 </r>
       <r>  -20.3087    1.0000 </r>
       <r>  -10.4976    1.0000 </r>
       <r>   -9.4202    1.0000 </r>
       <r>   -8.7355    1.0000 </r>
       <r>   -8.3312    1.0000 </r>
       <r>   -8.1721    1.0000 </r>
       <r>   -7.9020    1.0000 </r>
       <r>    2.2489    0.0000 </r>
       <r>    2.9194    0.0000 </r>
       <r>    3.0592    0.0000 </r>
       <r>    3.4835    0.0000 </r>
      </set>
      <set comment="kpoint 13">
       <r>  -20.5637    1.0000 </r>
       <r>  -20.5637    1.0000 </r>
       <r>   -9.9550    1.0000 </r>
       <r>   -9.9550    1.0000 </r>
       <r>   -8.4640    1.0000 </r>
       <r>   -8.4640    1.0000 </r>
       <r>   -8.1218    1.0000 </r>
       <r>   -8.1218    1.0000 </r>
       <r>    2.5707    0.0000 </r>
       <r>    2.5707    0.0000 </r>
       <r>    3.3781    0.0000 </r>
       <r>    3.3781    0.0000 </r>
      </set>
      <set comment="kpoint 14">
       <r>  -22.0353    1.0000 </r>
       <r>  -16.6327    1.0000 </r>
       <r>  -15.8352    1.0000 </r>
       <r>  -10.1851    1.0000 </r>
       <r>   -9.5858    1.0000 </r>
       <r>   -6.0765    1.0000 </r>
       <r>   -5.7717    1.0000 </r>
       <r>   -4.8495    1.0000 </r>
       <r>   -1.1666    0.0000 </r>
       <r>    0.5663    0.0000 </r>
       <r>    1.3640    0.0000 </r>
       <r>    1.7598    0.0000 </r>
      </set>
      <set comment="kpoint 15">
       <r>  -22.0249    1.0000 </r>
       <r>  -16.8361    1.0000 </r>
       <r>  -15.6169    1.0000 </r>
       <r>  -10.1728    1.0000 </r>
       <r>   -9.5753    1.0000 </r>
       <r>   -6.1033    1.0000 </r>
       <r>   -5.8079    1.0000 </r>
       <r>   -4.9207    1.0000 </r>
       <r>   -1.0810    0.0000 </r>
       <r>    0.5803    0.0000 </r>
       <r>    1.3782    0.0000 </r>
       <r>    1.7742    0.0000 </r>
      </set>
      <set comment="kpoint 16">
       <r>  -21.9937    1.0000 </r>
       <r>  -17.2083    1.0000 </r>
       <r>  -15.2002    1.0000 </r>
       <r>  -10.1358    1.0000 </r>
       <r>   -9.5439    1.0000 </r>
       <r>   -6.1829    1.0000 </r>
       <r>   -5.9143    1.0000 </r>
       <r>   -5.1162    1.0000 </r>
       <r>   -0.8424    0.0000 </r>
       <r>    0.6226    0.0000 </r>
       <r>    1.4209    0.0000 </r>
       <r>    1.8174    0.0000 </r>
      </set>
      <set comment="kpoint 17">
       <r>  -21.9418    1.0000 </r>
       <r>  -17.6039    1.0000 </r>
       <r>  -14.7305    1.0000 </r>
       <r>  -10.0743    1.0000 </r>
       <r>   -9.4917    1.0000 </r>
       <r>   -6.3152    1.0000 </r>
       <r>   -6.0836    1.0000 </r>
       <r>   -5.3980    1.0000 </r>
       <r>   -0.4894    0.0000 </r>
       <r>    0.6930    0.0000 </r>
       <r>    1.4919    0.0000 </r>
       <r>    1.8894    0.0000 </r>
      </set>
      <set comment="kpoint 18">
       <r>  -21.8691    1.0000 </r>
       <r>  -17.9952    1.0000 </r>
       <r>  -14.2364    1.0000 </r>
       <r>   -9.9884    1.0000 </r>
       <r>   -9.4189    1.0000 </r>
       <r>   -6.5056    1.0000 </r>
       <r>   -6.2990    1.0000 </r>
       <r>   -5.7301    1.0000 </r>
       <r>   -0.0589    0.0000 </r>
       <r>    0.7915    0.0000 </r>
       <r>    1.5914    0.0000 </r>
       <r>    1.9902    0.0000 </r>
      </set>
      <set comment="kpoint 19">
       <r>  -21.7758    1.0000 </r>
       <r>  -18.3746    1.0000 </r>
       <r>  -13.7261    1.0000 </r>
       <r>   -9.8781    1.0000 </r>
       <r>   -9.3260    1.0000 </r>
       <r>   -6.7689    1.0000 </r>
       <r>   -6.5317    1.0000 </r>
       <r>   -6.0871    1.0000 </r>
       <r>    0.4225    0.0000 </r>
       <r>    0.9182    0.0000 </r>
       <r>    1.7192    0.0000 </r>
       <r>    2.1198    0.0000 </r>
      </set>
      <set comment="kpoint 20">
       <r>  -21.6618    1.0000 </r>
       <r>  -18.7388    1.0000 </r>
       <r>  -13.2036    1.0000 </r>
       <r>   -9.7437    1.0000 </r>
       <r>   -9.2133    1.0000 </r>
       <r>   -7.1072    1.0000 </r>
       <r>   -6.7647    1.0000 </r>
       <r>   -6.4529    1.0000 </r>
       <r>    0.9371    0.0000 </r>
       <r>    1.0730    0.0000 </r>
       <r>    1.8754    0.0000 </r>
       <r>    2.2781    0.0000 </r>
      </set>
      <set comment="kpoint 21">
       <r>  -21.5274    1.0000 </r>
       <r>  -19.0865    1.0000 </r>
       <r>  -12.6717    1.0000 </r>
       <r>   -9.5854    1.0000 </r>
       <r>   -9.0815    1.0000 </r>
       <r>   -7.5037    1.0000 </r>
       <r>   -7.0002    1.0000 </r>
       <r>   -6.8174    1.0000 </r>
       <r>    1.2558    0.0000 </r>
       <r>    1.4727    0.0000 </r>
       <r>    2.0598    0.0000 </r>
       <r>    2.4653    0.0000 </r>
      </set>
      <set comment="kpoint 22">
       <r>  -21.3724    1.0000 </r>
       <r>  -19.4167    1.0000 </r>
       <r>  -12.1329    1.0000 </r>
       <r>   -9.4036    1.0000 </r>
       <r>   -8.9314    1.0000 </r>
       <r>   -7.9434    1.0000 </r>
       <r>   -7.2389    1.0000 </r>
       <r>   -7.1739    1.0000 </r>
       <r>    1.4667    0.0000 </r>
       <r>    2.0201    0.0000 </r>
       <r>    2.2724    0.0000 </r>
       <r>    2.6812    0.0000 </r>
      </set>
      <set comment="kpoint 23">
       <r>  -21.1972    1.0000 </r>
       <r>  -19.7286    1.0000 </r>
       <r>  -11.5896    1.0000 </r>
       <r>   -9.1985    1.0000 </r>
       <r>   -8.7639    1.0000 </r>
       <r>   -8.4163    1.0000 </r>
       <r>   -7.5179    1.0000 </r>
       <r>   -7.4785    1.0000 </r>
       <r>    1.7055    0.0000 </r>
       <r>    2.5130    0.0000 </r>
       <r>    2.5720    0.0000 </r>
       <r>    2.9259    0.0000 </r>
      </set>
      <set comment="kpoint 24">
       <r>  -21.0018    1.0000 </r>
       <r>  -20.0219    1.0000 </r>
       <r>  -11.0445    1.0000 </r>
       <r>   -8.9707    1.0000 </r>
       <r>   -8.9144    1.0000 </r>
       <r>   -8.5801    1.0000 </r>
       <r>   -7.8466    1.0000 </r>
       <r>   -7.7156    1.0000 </r>
       <r>    1.9721    0.0000 </r>
       <r>    2.7814    0.0000 </r>
       <r>    3.1200    0.0000 </r>
       <r>    3.1993    0.0000 </r>
      </set>
      <set comment="kpoint 25">
       <r>  -20.7863    1.0000 </r>
       <r>  -20.2962    1.0000 </r>
       <r>  -10.5007    1.0000 </r>
       <r>   -9.4313    1.0000 </r>
       <r>   -8.7207    1.0000 </r>
       <r>   -8.3815    1.0000 </r>
       <r>   -8.1576    1.0000 </r>
       <r>   -7.9470    1.0000 </r>
       <r>    2.2665    0.0000 </r>
       <r>    2.9372    0.0000 </r>
       <r>    3.0768    0.0000 </r>
       <r>    3.5014    0.0000 </r>
      </set>
      <set comment="kpoint 26">
       <r>  -20.5510    1.0000 </r>
       <r>  -20.5510    1.0000 </r>
       <r>   -9.9616    1.0000 </r>
       <r>   -9.9616    1.0000 </r>
       <r>   -8.4494    1.0000 </r>
       <r>   -8.4494    1.0000 </r>
       <r>   -8.1698    1.0000 </r>
       <r>   -8.1698    1.0000 </r>
       <r>    2.5884    0.0000 </r>
       <r>    2.5884    0.0000 </r>
       <r>    3.3958    0.0000 </r>
       <r>    3.3958    0.0000 </r>
      </set>
      <set comment="kpoint 27">
       <r>  -21.9966    1.0000 </r>
       <r>  -16.5993    1.0000 </r>
       <r>  -15.8050    1.0000 </r>
       <r>  -10.1393    1.0000 </r>
       <r>   -9.7537    1.0000 </r>
       <r>   -6.2316    1.0000 </r>
       <r>   -5.8681    1.0000 </r>
       <r>   -4.8028    1.0000 </r>
       <r>   -1.1871    0.0000 </r>
       <r>    0.6185    0.0000 </r>
       <r>    1.4170    0.0000 </r>
       <r>    1.8135    0.0000 </r>
      </set>
      <set comment="kpoint 28">
       <r>  -21.9863    1.0000 </r>
       <r>  -16.8025    1.0000 </r>
       <r>  -15.5871    1.0000 </r>
       <r>  -10.1270    1.0000 </r>
       <r>   -9.7431    1.0000 </r>
       <r>   -6.2645    1.0000 </r>
       <r>   -5.8959    1.0000 </r>
       <r>   -4.8745    1.0000 </r>
       <r>   -1.1013    0.0000 </r>
       <r>    0.6326    0.0000 </r>
       <r>    1.4313    0.0000 </r>
       <r>    1.8279    0.0000 </r>
      </set>
      <set comment="kpoint 29">
       <r>  -21.9551    1.0000 </r>
       <r>  -17.1741    1.0000 </r>
       <r>  -15.1716    1.0000 </r>
       <r>  -10.0901    1.0000 </r>
       <r>   -9.7113    1.0000 </r>
       <r>   -6.3609    1.0000 </r>
       <r>   -5.9794    1.0000 </r>
       <r>   -5.0713    1.0000 </r>
       <r>   -0.8626    0.0000 </r>
       <r>    0.6749    0.0000 </r>
       <r>    1.4739    0.0000 </r>
       <r>    1.8711    0.0000 </r>
      </set>
      <set comment="kpoint 30">
       <r>  -21.9032    1.0000 </r>
[...]
       <r>   -8.9710    1.0000 </r>
       <r>   -5.6759    1.0000 </r>
       <r>   -5.6759    1.0000 </r>
       <r>   -0.5990    0.0000 </r>
       <r>   -0.5990    0.0000 </r>
       <r>    4.8030    0.0000 </r>
       <r>    4.8030    0.0000 </r>
      </set>
      <set comment="kpoint 209">
       <r>  -18.8373    1.0000 </r>
       <r>  -17.1688    1.0000 </r>
       <r>  -13.8225    1.0000 </r>
       <r>  -12.2908    1.0000 </r>
       <r>  -12.2795    1.0000 </r>
       <r>  -10.8414    1.0000 </r>
       <r>   -6.5118    1.0000 </r>
       <r>   -4.7292    1.0000 </r>
       <r>   -0.9977    0.0000 </r>
       <r>    1.0351    0.0000 </r>
       <r>    4.9931    0.0000 </r>
       <r>    5.7823    0.0000 </r>
      </set>
      <set comment="kpoint 210">
       <r>  -18.8275    1.0000 </r>
       <r>  -17.1614    1.0000 </r>
       <r>  -13.9163    1.0000 </r>
       <r>  -12.3687    1.0000 </r>
       <r>  -12.1884    1.0000 </r>
       <r>  -10.7536    1.0000 </r>
       <r>   -6.5029    1.0000 </r>
       <r>   -4.7311    1.0000 </r>
       <r>   -1.0092    0.0000 </r>
       <r>    1.0090    0.0000 </r>
       <r>    5.0068    0.0000 </r>
       <r>    5.7986    0.0000 </r>
      </set>
      <set comment="kpoint 211">
       <r>  -18.7983    1.0000 </r>
       <r>  -17.1397    1.0000 </r>
       <r>  -14.1441    1.0000 </r>
       <r>  -12.5889    1.0000 </r>
       <r>  -11.9347    1.0000 </r>
       <r>  -10.5382    1.0000 </r>
       <r>   -6.4766    1.0000 </r>
       <r>   -4.7373    1.0000 </r>
       <r>   -1.0417    0.0000 </r>
       <r>    0.9328    0.0000 </r>
       <r>    5.0480    0.0000 </r>
       <r>    5.8470    0.0000 </r>
      </set>
      <set comment="kpoint 212">
       <r>  -18.7497    1.0000 </r>
       <r>  -17.1050    1.0000 </r>
       <r>  -14.4290    1.0000 </r>
       <r>  -12.8713    1.0000 </r>
       <r>  -11.6068    1.0000 </r>
       <r>  -10.2662    1.0000 </r>
       <r>   -6.4330    1.0000 </r>
       <r>   -4.7493    1.0000 </r>
       <r>   -1.0898    0.0000 </r>
       <r>    0.8120    0.0000 </r>
       <r>    5.1164    0.0000 </r>
       <r>    5.9264    0.0000 </r>
      </set>
      <set comment="kpoint 213">
       <r>  -18.6819    1.0000 </r>
       <r>  -17.0600    1.0000 </r>
       <r>  -14.7277    1.0000 </r>
       <r>  -13.1776    1.0000 </r>
       <r>  -11.2475    1.0000 </r>
       <r>   -9.9792    1.0000 </r>
       <r>   -6.3728    1.0000 </r>
       <r>   -4.7694    1.0000 </r>
       <r>   -1.1455    0.0000 </r>
       <r>    0.6545    0.0000 </r>
       <r>    5.2111    0.0000 </r>
       <r>    6.0355    0.0000 </r>
      </set>
      <set comment="kpoint 214">
       <r>  -18.5951    1.0000 </r>
       <r>  -17.0098    1.0000 </r>
       <r>  -15.0170    1.0000 </r>
       <r>  -13.4901    1.0000 </r>
       <r>  -10.8786    1.0000 </r>
       <r>   -9.6998    1.0000 </r>
       <r>   -6.2967    1.0000 </r>
       <r>   -4.8007    1.0000 </r>
       <r>   -1.1992    0.0000 </r>
       <r>    0.4696    0.0000 </r>
       <r>    5.3291    0.0000 </r>
       <r>    6.1814    0.0000 </r>
      </set>
      <set comment="kpoint 215">
       <r>  -18.4899    1.0000 </r>
       <r>  -16.9636    1.0000 </r>
       <r>  -15.2788    1.0000 </r>
       <r>  -13.7993    1.0000 </r>
       <r>  -10.5134    1.0000 </r>
       <r>   -9.4433    1.0000 </r>
       <r>   -6.2057    1.0000 </r>
       <r>   -4.8461    1.0000 </r>
       <r>   -1.2410    0.0000 </r>
       <r>    0.2663    0.0000 </r>
       <r>    5.4455    0.0000 </r>
       <r>    5.7715    0.0000 </r>
      </set>
      <set comment="kpoint 216">
       <r>  -18.3668    1.0000 </r>
       <r>  -16.9375    1.0000 </r>
       <r>  -15.4923    1.0000 </r>
       <r>  -14.0997    1.0000 </r>
       <r>  -10.1623    1.0000 </r>
       <r>   -9.2218    1.0000 </r>
       <r>   -6.1013    1.0000 </r>
       <r>   -4.9079    1.0000 </r>
       <r>   -1.2622    0.0000 </r>
       <r>    0.0533    0.0000 </r>
       <r>    5.2933    0.0000 </r>
       <r>    5.7190    0.0000 </r>
      </set>
      <set comment="kpoint 217">
       <r>  -18.2265    1.0000 </r>
       <r>  -16.9545    1.0000 </r>
       <r>  -15.6317    1.0000 </r>
       <r>  -14.3875    1.0000 </r>
       <r>   -9.8350    1.0000 </r>
       <r>   -9.0459    1.0000 </r>
       <r>   -5.9852    1.0000 </r>
       <r>   -4.9875    1.0000 </r>
       <r>   -1.2561    0.0000 </r>
       <r>   -0.1615    0.0000 </r>
       <r>    5.0041    0.0000 </r>
       <r>    5.8205    0.0000 </r>
      </set>
      <set comment="kpoint 218">
       <r>  -18.0702    1.0000 </r>
       <r>  -17.0332    1.0000 </r>
       <r>  -15.6766    1.0000 </r>
       <r>  -14.6596    1.0000 </r>
       <r>   -9.5409    1.0000 </r>
       <r>   -8.9251    1.0000 </r>
       <r>   -5.8595    1.0000 </r>
       <r>   -5.0845    1.0000 </r>
       <r>   -1.2183    0.0000 </r>
       <r>   -0.3713    0.0000 </r>
       <r>    4.7841    0.0000 </r>
       <r>    5.4206    0.0000 </r>
      </set>
      <set comment="kpoint 219">
       <r>  -17.8998    1.0000 </r>
       <r>  -17.1697    1.0000 </r>
       <r>  -15.6298    1.0000 </r>
       <r>  -14.9127    1.0000 </r>
       <r>   -9.2896    1.0000 </r>
       <r>   -8.8664    1.0000 </r>
       <r>   -5.7269    1.0000 </r>
       <r>   -5.1969    1.0000 </r>
       <r>   -1.1475    0.0000 </r>
       <r>   -0.5697    0.0000 </r>
       <r>    4.6537    0.0000 </r>
       <r>    5.0911    0.0000 </r>
      </set>
      <set comment="kpoint 220">
       <r>  -17.7180    1.0000 </r>
       <r>  -17.3422    1.0000 </r>
       <r>  -15.5127    1.0000 </r>
       <r>  -15.1432    1.0000 </r>
       <r>   -9.0898    1.0000 </r>
       <r>   -8.8742    1.0000 </r>
       <r>   -5.5906    1.0000 </r>
       <r>   -5.3214    1.0000 </r>
       <r>   -1.0441    0.0000 </r>
       <r>   -0.7512    0.0000 </r>
       <r>    4.6196    0.0000 </r>
       <r>    4.8425    0.0000 </r>
      </set>
      <set comment="kpoint 221">
       <r>  -17.5295    1.0000 </r>
       <r>  -17.5295    1.0000 </r>
       <r>  -15.3459    1.0000 </r>
       <r>  -15.3459    1.0000 </r>
       <r>   -8.9495    1.0000 </r>
       <r>   -8.9495    1.0000 </r>
       <r>   -5.4540    1.0000 </r>
       <r>   -5.4540    1.0000 </r>
       <r>   -0.9109    0.0000 </r>
       <r>   -0.9109    0.0000 </r>
       <r>    4.6834    0.0000 </r>
       <r>    4.6834    0.0000 </r>
      </set>
      <set comment="kpoint 222">
       <r>  -18.4419    1.0000 </r>
       <r>  -17.6038    1.0000 </r>
       <r>  -13.4652    1.0000 </r>
       <r>  -12.6929    1.0000 </r>
       <r>  -11.9632    1.0000 </r>
       <r>  -11.2340    1.0000 </r>
       <r>   -6.0793    1.0000 </r>
       <r>   -5.1835    1.0000 </r>
       <r>   -0.5209    0.0000 </r>
       <r>    0.4974    0.0000 </r>
       <r>    5.5560    0.0000 </r>
       <r>    6.3151    0.0000 </r>
      </set>
      <set comment="kpoint 223">
       <r>  -18.4323    1.0000 </r>
       <r>  -17.5953    1.0000 </r>
       <r>  -13.5599    1.0000 </r>
       <r>  -12.7847    1.0000 </r>
       <r>  -11.8627    1.0000 </r>
       <r>  -11.1411    1.0000 </r>
       <r>   -6.0718    1.0000 </r>
       <r>   -5.1807    1.0000 </r>
       <r>   -0.5384    0.0000 </r>
       <r>    0.4733    0.0000 </r>
       <r>    5.5697    0.0000 </r>
       <r>    6.3321    0.0000 </r>
      </set>
      <set comment="kpoint 224">
       <r>  -18.4038    1.0000 </r>
       <r>  -17.5698    1.0000 </r>
       <r>  -13.7904    1.0000 </r>
       <r>  -13.0101    1.0000 </r>
       <r>  -11.6149    1.0000 </r>
       <r>  -10.9130    1.0000 </r>
       <r>   -6.0493    1.0000 </r>
       <r>   -5.1727    1.0000 </r>
       <r>   -0.5887    0.0000 </r>
       <r>    0.4030    0.0000 </r>
       <r>    5.6107    0.0000 </r>
       <r>    6.3828    0.0000 </r>
      </set>
      <set comment="kpoint 225">
       <r>  -18.3563    1.0000 </r>
       <r>  -17.5279    1.0000 </r>
       <r>  -14.0807    1.0000 </r>
       <r>  -13.2972    1.0000 </r>
       <r>  -11.2969    1.0000 </r>
       <r>  -10.6233    1.0000 </r>
       <r>   -6.0124    1.0000 </r>
       <r>   -5.1607    1.0000 </r>
       <r>   -0.6665    0.0000 </r>
       <r>    0.2919    0.0000 </r>
       <r>    5.6785    0.0000 </r>
       <r>    6.4656    0.0000 </r>
      </set>
      <set comment="kpoint 226">
       <r>  -18.2904    1.0000 </r>
       <r>  -17.4707    1.0000 </r>
       <r>  -14.3897    1.0000 </r>
       <r>  -13.6071    1.0000 </r>
       <r>  -10.9515    1.0000 </r>
       <r>  -10.3142    1.0000 </r>
       <r>   -5.9618    1.0000 </r>
       <r>   -5.1464    1.0000 </r>
       <r>   -0.7637    0.0000 </r>
       <r>    0.1479    0.0000 </r>
       <r>    5.7717    0.0000 </r>
       <r>    6.5788    0.0000 </r>
      </set>
      <set comment="kpoint 227">
       <r>  -18.2063    1.0000 </r>
       <r>  -17.4002    1.0000 </r>
       <r>  -14.6973    1.0000 </r>
       <r>  -13.9213    1.0000 </r>
       <r>  -10.6004    1.0000 </r>
       <r>  -10.0080    1.0000 </r>
       <r>   -5.8988    1.0000 </r>
       <r>   -5.1324    1.0000 </r>
       <r>   -0.8704    0.0000 </r>
       <r>   -0.0196    0.0000 </r>
       <r>    5.8822    0.0000 </r>
       <r>    6.4509    0.0000 </r>
      </set>
      <set comment="kpoint 228">
       <r>  -18.1047    1.0000 </r>
       <r>  -17.3196    1.0000 </r>
       <r>  -14.9917    1.0000 </r>
       <r>  -14.2306    1.0000 </r>
       <r>  -10.2575    1.0000 </r>
       <r>   -9.7195    1.0000 </r>
       <r>   -5.8249    1.0000 </r>
       <r>   -5.1219    1.0000 </r>
       <r>   -0.9763    0.0000 </r>
       <r>   -0.2012    0.0000 </r>
       <r>    5.8668    0.0000 </r>
       <r>    6.1381    0.0000 </r>
      </set>
      <set comment="kpoint 229">
       <r>  -17.9868    1.0000 </r>
       <r>  -17.2347    1.0000 </r>
       <r>  -15.2622    1.0000 </r>
       <r>  -14.5290    1.0000 </r>
       <r>   -9.9336    1.0000 </r>
       <r>   -9.4604    1.0000 </r>
       <r>   -5.7422    1.0000 </r>
       <r>   -5.1185    1.0000 </r>
       <r>   -1.0711    0.0000 </r>
       <r>   -0.3877    0.0000 </r>
       <r>    5.4985    0.0000 </r>
       <r>    5.9886    0.0000 </r>
      </set>
      <set comment="kpoint 230">
       <r>  -17.8541    1.0000 </r>
       <r>  -17.1559    1.0000 </r>
       <r>  -15.4958    1.0000 </r>
       <r>  -14.8119    1.0000 </r>
       <r>   -9.6388    1.0000 </r>
       <r>   -9.2415    1.0000 </r>
       <r>   -5.6532    1.0000 </r>
       <r>   -5.1257    1.0000 </r>
       <r>   -1.1453    0.0000 </r>
       <r>   -0.5705    0.0000 </r>
       <r>    5.1518    0.0000 </r>
       <r>    5.5613    0.0000 </r>
      </set>
      <set comment="kpoint 231">
       <r>  -17.7091    1.0000 </r>
       <r>  -17.1008    1.0000 </r>
       <r>  -15.6730    1.0000 </r>
       <r>  -15.0750    1.0000 </r>
       <r>   -9.3828    1.0000 </r>
       <r>   -9.0725    1.0000 </r>
       <r>   -5.5610    1.0000 </r>
       <r>   -5.1465    1.0000 </r>
       <r>   -1.1913    0.0000 </r>
       <r>   -0.7416    0.0000 </r>
       <r>    4.8795    0.0000 </r>
       <r>    5.1993    0.0000 </r>
      </set>
      <set comment="kpoint 232">
       <r>  -17.5559    1.0000 </r>
       <r>  -17.0930    1.0000 </r>
       <r>  -15.7691    1.0000 </r>
       <r>  -15.3129    1.0000 </r>
       <r>   -9.1751    1.0000 </r>
       <r>   -8.9617    1.0000 </r>
       <r>   -5.4692    1.0000 </r>
       <r>   -5.1830    1.0000 </r>
       <r>   -1.2035    0.0000 </r>
       <r>   -0.8939    0.0000 </r>
       <r>    4.6942    0.0000 </r>
       <r>    4.9143    0.0000 </r>
      </set>
      <set comment="kpoint 233">
       <r>  -17.4018    1.0000 </r>
       <r>  -17.1487    1.0000 </r>
       <r>  -15.7673    1.0000 </r>
       <r>  -15.5175    1.0000 </r>
       <r>   -9.0240    1.0000 </r>
       <r>   -8.9152    1.0000 </r>
       <r>   -5.3817    1.0000 </r>
       <r>   -5.2354    1.0000 </r>
       <r>   -1.1789    0.0000 </r>
       <r>   -1.0210    0.0000 </r>
       <r>    4.6034    0.0000 </r>
       <r>    4.7157    0.0000 </r>
      </set>
      <set comment="kpoint 234">
       <r>  -17.2593    1.0000 </r>
       <r>  -17.2593    1.0000 </r>
       <r>  -15.6757    1.0000 </r>
       <r>  -15.6757    1.0000 </r>
       <r>   -8.9361    1.0000 </r>
       <r>   -8.9361    1.0000 </r>
       <r>   -5.3026    1.0000 </r>
       <r>   -5.3026    1.0000 </r>
       <r>   -1.1173    0.0000 </r>
       <r>   -1.1173    0.0000 </r>
       <r>    4.6107    0.0000 </r>
       <r>    4.6107    0.0000 </r>
      </set>
      <set comment="kpoint 235">
       <r>  -18.0297    1.0000 </r>
       <r>  -18.0297    1.0000 </r>
       <r>  -13.0884    1.0000 </r>
       <r>  -13.0884    1.0000 </r>
       <r>  -11.6092    1.0000 </r>
       <r>  -11.6092    1.0000 </r>
       <r>   -5.6352    1.0000 </r>
       <r>   -5.6352    1.0000 </r>
       <r>   -0.0220    0.0000 </r>
       <r>   -0.0220    0.0000 </r>
       <r>    6.1472    0.0000 </r>
       <r>    6.1472    0.0000 </r>
      </set>
      <set comment="kpoint 236">
       <r>  -18.0205    1.0000 </r>
       <r>  -18.0205    1.0000 </r>
       <r>  -13.1822    1.0000 </r>
       <r>  -13.1822    1.0000 </r>
       <r>  -11.5120    1.0000 </r>
       <r>  -11.5120    1.0000 </r>
       <r>   -5.6295    1.0000 </r>
       <r>   -5.6295    1.0000 </r>
       <r>   -0.0434    0.0000 </r>
       <r>   -0.0434    0.0000 </r>
       <r>    6.1608    0.0000 </r>
       <r>    6.1608    0.0000 </r>
      </set>
      <set comment="kpoint 237">
       <r>  -17.9931    1.0000 </r>
       <r>  -17.9931    1.0000 </r>
       <r>  -13.4113    1.0000 </r>
       <r>  -13.4113    1.0000 </r>
       <r>  -11.2730    1.0000 </r>
       <r>  -11.2730    1.0000 </r>
       <r>   -5.6128    1.0000 </r>
       <r>   -5.6128    1.0000 </r>
       <r>   -0.1055    0.0000 </r>
       <r>   -0.1055    0.0000 </r>
       <r>    6.2015    0.0000 </r>
       <r>    6.2015    0.0000 </r>
      </set>
      <set comment="kpoint 238">
       <r>  -17.9476    1.0000 </r>
       <r>  -17.9476    1.0000 </r>
       <r>  -13.7015    1.0000 </r>
       <r>  -13.7015    1.0000 </r>
       <r>  -10.9679    1.0000 </r>
       <r>  -10.9679    1.0000 </r>
       <r>   -5.5856    1.0000 </r>
       <r>   -5.5856    1.0000 </r>
       <r>   -0.2030    0.0000 </r>
       <r>   -0.2030    0.0000 </r>
       <r>    6.2684    0.0000 </r>
       <r>    6.2684    0.0000 </r>
      </set>
      <set comment="kpoint 239">
       <r>  -17.8847    1.0000 </r>
       <r>  -17.8847    1.0000 </r>
       <r>  -14.0128    1.0000 </r>
       <r>  -14.0128    1.0000 </r>
       <r>  -10.6393    1.0000 </r>
       <r>  -10.6393    1.0000 </r>
       <r>   -5.5494    1.0000 </r>
       <r>   -5.5494    1.0000 </r>
       <r>   -0.3279    0.0000 </r>
       <r>   -0.3279    0.0000 </r>
       <r>    6.3587    0.0000 </r>
       <r>    6.3587    0.0000 </r>
      </set>
      <set comment="kpoint 240">
       <r>  -17.8052    1.0000 </r>
       <r>  -17.8052    1.0000 </r>
       <r>  -14.3263    1.0000 </r>
       <r>  -14.3263    1.0000 </r>
       <r>  -10.3092    1.0000 </r>
       <r>  -10.3092    1.0000 </r>
       <r>   -5.5059    1.0000 </r>
       <r>   -5.5059    1.0000 </r>
       <r>   -0.4707    0.0000 </r>
       <r>   -0.4707    0.0000 </r>
       <r>    6.4437    0.0000 </r>
       <r>    6.4437    0.0000 </r>
      </set>
      <set comment="kpoint 241">
       <r>  -17.7104    1.0000 </r>
       <r>  -17.7104    1.0000 </r>
       <r>  -14.6322    1.0000 </r>
       <r>  -14.6322    1.0000 </r>
       <r>   -9.9919    1.0000 </r>
       <r>   -9.9919    1.0000 </r>
       <r>   -5.4573    1.0000 </r>
       <r>   -5.4573    1.0000 </r>
       <r>   -0.6214    0.0000 </r>
       <r>   -0.6214    0.0000 </r>
       <r>    6.1684    0.0000 </r>
       <r>    6.1684    0.0000 </r>
      </set>
      <set comment="kpoint 242">
       <r>  -17.6027    1.0000 </r>
       <r>  -17.6027    1.0000 </r>
       <r>  -14.9232    1.0000 </r>
       <r>  -14.9232    1.0000 </r>
       <r>   -9.6987    1.0000 </r>
       <r>   -9.6987    1.0000 </r>
       <r>   -5.4067    1.0000 </r>
       <r>   -5.4067    1.0000 </r>
       <r>   -0.7701    0.0000 </r>
       <r>   -0.7701    0.0000 </r>
       <r>    5.7281    0.0000 </r>
       <r>    5.7281    0.0000 </r>
      </set>
      <set comment="kpoint 243">
       <r>  -17.4856    1.0000 </r>
       <r>  -17.4856    1.0000 </r>
       <r>  -15.1929    1.0000 </r>
       <r>  -15.1929    1.0000 </r>
       <r>   -9.4400    1.0000 </r>
       <r>   -9.4400    1.0000 </r>
       <r>   -5.3575    1.0000 </r>
       <r>   -5.3575    1.0000 </r>
       <r>   -0.9074    0.0000 </r>
       <r>   -0.9074    0.0000 </r>
       <r>    5.3377    0.0000 </r>
       <r>    5.3377    0.0000 </r>
      </set>
      <set comment="kpoint 244">
       <r>  -17.3658    1.0000 </r>
       <r>  -17.3658    1.0000 </r>
       <r>  -15.4329    1.0000 </r>
       <r>  -15.4329    1.0000 </r>
       <r>   -9.2259    1.0000 </r>
       <r>   -9.2259    1.0000 </r>
       <r>   -5.3135    1.0000 </r>
       <r>   -5.3135    1.0000 </r>
       <r>   -1.0246    0.0000 </r>
       <r>   -1.0246    0.0000 </r>
       <r>    5.0183    0.0000 </r>
       <r>    5.0183    0.0000 </r>
      </set>
      <set comment="kpoint 245">
       <r>  -17.2547    1.0000 </r>
       <r>  -17.2547    1.0000 </r>
       <r>  -15.6306    1.0000 </r>
       <r>  -15.6306    1.0000 </r>
       <r>   -9.0652    1.0000 </r>
       <r>   -9.0652    1.0000 </r>
       <r>   -5.2786    1.0000 </r>
       <r>   -5.2786    1.0000 </r>
       <r>   -1.1145    0.0000 </r>
       <r>   -1.1145    0.0000 </r>
       <r>    4.7814    0.0000 </r>
       <r>    4.7814    0.0000 </r>
      </set>
      <set comment="kpoint 246">
       <r>  -17.1712    1.0000 </r>
       <r>  -17.1712    1.0000 </r>
       <r>  -15.7663    1.0000 </r>
       <r>  -15.7663    1.0000 </r>
       <r>   -8.9654    1.0000 </r>
       <r>   -8.9654    1.0000 </r>
       <r>   -5.2561    1.0000 </r>
       <r>   -5.2561    1.0000 </r>
       <r>   -1.1709    0.0000 </r>
       <r>   -1.1709    0.0000 </r>
       <r>    4.6356    0.0000 </r>
       <r>    4.6356    0.0000 </r>
      </set>
      <set comment="kpoint 247">
       <r>  -17.1393    1.0000 </r>
       <r>  -17.1393    1.0000 </r>
       <r>  -15.8157    1.0000 </r>
       <r>  -15.8157    1.0000 </r>
       <r>   -8.9316    1.0000 </r>
       <r>   -8.9316    1.0000 </r>
       <r>   -5.2483    1.0000 </r>
       <r>   -5.2483    1.0000 </r>
       <r>   -1.1902    0.0000 </r>
       <r>   -1.1902    0.0000 </r>
       <r>    4.5863    0.0000 </r>
       <r>    4.5863    0.0000 </r>
      </set>
     </set>
    </set>
   </array>
  </eigenvalues>
  <separator name="orbital magnetization" >
   <v name="MAGDIPOLOUT">      0.00000000      0.00000000      0.00000000</v>
  </separator>
 </calculation>
 <structure name="finalpos" >
  <crystal>
   <varray name="basis" >
    <v>       4.25193696       0.00000000       0.00000000 </v>
    <v>       0.00000000       2.54107520       0.00000000 </v>
    <v>       0.00000000       0.00000000      19.51391235 </v>
   </varray>
   <i name="volume">    210.83790140 </i>
   <varray name="rec_basis" >
    <v>       0.23518693       0.00000000       0.00000000 </v>
    <v>       0.00000000       0.39353420       0.00000000 </v>
    <v>       0.00000000       0.00000000       0.05124549 </v>
   </varray>
  </crystal>
  <varray name="positions" >
   <v>       0.00074443       0.00000000       0.00000000 </v>
   <v>       0.16592223       0.50000000      -0.00000000 </v>
   <v>       0.50074443       0.50000000       0.00000000 </v>
   <v>       0.66592223      -0.00000000      -0.00000000 </v>
  </varray>
 </structure>
</modeling>
