gr                                      
           1
     4.251937    0.000000    0.000000
     0.000000    2.541075    0.000000
     0.000000    0.000000   19.513912
   C 
   4
Direct configuration=     1
   0.00074775  0.00000000  0.00000000
   0.16591892  0.50000000  0.00000000
   0.50074775  0.50000000  0.00000000
   0.66591892  0.00000000  0.00000000
Direct configuration=     2
   0.00073130  0.00000000  0.00000000
   0.16593536  0.50000000  0.00000000
   0.50073130  0.50000000  0.00000000
   0.66593536 -0.00000000  0.00000000
Direct configuration=     3
   0.00074442  0.00000000 -0.00000000
   0.16592224  0.50000000  0.00000000
   0.50074442  0.50000000 -0.00000000
   0.66592224 -0.00000000  0.00000000
Direct configuration=     4
   0.00074445  0.00000000  0.00000000
   0.16592222  0.50000000 -0.00000000
   0.50074445  0.50000000  0.00000000
   0.66592222 -0.00000000 -0.00000000
Direct configuration=     5
   0.00074443  0.00000000  0.00000000
   0.16592223  0.50000000 -0.00000000
   0.50074443  0.50000000  0.00000000
   0.66592223 -0.00000000 -0.00000000
