    4    4  400    1
  0.5270948E+02  0.4316205E-09  0.2462831E-09  0.1983408E-08  0.5000000E-15
  1.000000000000000E-004
  CAR 
 gr                                      
     16    247     12
 
  0.0000000E+00  0.0000000E+00  0.0000000E+00  0.1157407E-02
    1      -22.184277
    2      -17.119712
    3      -15.918944
    4      -10.305363
    5       -9.012589
    6       -5.877768
    7       -5.761094
    8       -5.203397
    9       -1.121878
   10        0.532144
   11        1.332115
   12        1.717698
 
  0.4166667E-01  0.0000000E+00  0.0000000E+00  0.2314815E-02
    1      -22.174229
    2      -17.263130
    3      -15.760374
    4      -10.293390
    5       -9.002706
    6       -5.921163
    7       -5.782632
    8       -5.266659
    9       -1.042718
   10        0.545758
   11        1.345916
   12        1.731667
 
  0.8333333E-01  0.0000000E+00  0.0000000E+00  0.2314815E-02
    1      -22.144089
    2      -17.573367
    3      -15.404764
    4      -10.257493
    5       -8.973104
    6       -6.049442
    7       -5.846085
    8       -5.442816
    9       -0.819036
   10        0.586605
   11        1.387313
   12        1.773578
 
  0.1250000E+00  0.0000000E+00  0.0000000E+00  0.2314815E-02
    1      -22.093876
    2      -17.931361
    3      -14.971419
    4      -10.197726
    5       -8.923939
    6       -6.257245
    7       -5.948154
    8       -5.701128
    9       -0.482068
   10        0.654696
   11        1.456293
   12        1.843430
 
  0.1666667E+00  0.0000000E+00  0.0000000E+00  0.2314815E-02
    1      -22.023625
    2      -18.296920
    3      -14.500955
    4      -10.114189
    5       -8.855470
    6       -6.536639
    7       -6.083912
    8       -6.010475
    9       -0.063776
   10        0.750041
   11        1.552833
   12        1.941228
 
  0.2083333E+00  0.0000000E+00  0.0000000E+00  0.2314815E-02
    1      -21.933386
    2      -18.656470
    3      -14.007549
    4      -10.007024
    5       -8.768075
    6       -6.878236
    7       -6.347200
    8       -6.247452
    9        0.410970
   10        0.872647
   11        1.676896
   12        2.066972
 
  0.2500000E+00  0.0000000E+00  0.0000000E+00  0.2314815E-02
    1      -21.823221
    2      -19.004393
    3      -13.497622
    4       -9.876418
    5       -8.662258
    6       -7.272220
    7       -6.695261
    8       -6.432515
    9        0.924500
   10        1.022506
   11        1.828425
   12        2.220663
 
  0.2916667E+00  0.0000000E+00  0.0000000E+00  0.2314815E-02
    1      -21.693213
    2      -19.337911
    3      -12.974978
    4       -9.722620
    5       -8.538667
    6       -7.709102
    7       -7.044118
    8       -6.632976
    9        1.199599
   10        1.464143
   11        2.007332
   12        2.402298
 
  0.3333333E+00  0.0000000E+00  0.0000000E+00  0.2314815E-02
    1      -21.543461
    2      -19.655444
    3      -12.442472
    4       -9.545940
    5       -8.398115
    6       -8.180172
    7       -7.386795
    8       -6.843165
    9        1.403890
   10        2.020038
   11        2.213472
   12        2.611874
 
  0.3750000E+00  0.0000000E+00  0.0000000E+00  0.2314815E-02
    1      -21.374080
    2      -19.955996
    3      -11.902670
    4       -9.346770
    5       -8.677702
    6       -8.241606
    7       -7.718568
    8       -7.058030
    9        1.635330
   10        2.446585
   11        2.582894
   12        2.849381
 
  0.4166667E+00  0.0000000E+00  0.0000000E+00  0.2314815E-02
    1      -21.185214
    2      -20.238877
    3      -11.358162
    4       -9.194982
    5       -9.125604
    6       -8.070368
    7       -8.036148
    8       -7.273188
    9        1.893850
   10        2.706116
   11        3.114850
   12        3.137378
 
  0.4583333E+00  0.0000000E+00  0.0000000E+00  0.2314815E-02
    1      -20.977031
    2      -20.503585
    3      -10.811745
    4       -9.726244
    5       -8.883057
    6       -8.337175
    7       -7.885900
    8       -7.484899
    9        2.179358
   10        2.830775
   11        2.990550
   12        3.409032
 
  0.5000000E+00  0.0000000E+00  0.0000000E+00  0.1157407E-02
    1      -20.749739
    2      -20.749739
    3      -10.266568
    4      -10.266568
    5       -8.619913
    6       -8.619913
    7       -7.690014
    8       -7.690014
    9        2.491729
   10        2.491729
   11        3.293338
   12        3.293338
 
  0.0000000E+00  0.2777778E-01  0.0000000E+00  0.2314815E-02
    1      -22.170543
    2      -17.107871
    3      -15.907270
    4      -10.288998
    5       -9.074896
    6       -5.906261
    7       -5.818846
    8       -5.186739
    9       -1.125185
   10        0.550767
   11        1.350958
   12        1.736772
 
  0.4166667E-01  0.2777778E-01  0.0000000E+00  0.4629630E-02
    1      -22.160495
    2      -17.251142
    3      -15.748896
    4      -10.277030
    5       -9.064998
    6       -5.953070
    7       -5.836324
    8       -5.250134
    9       -1.046005
   10        0.564382
   11        1.364758
   12        1.750742
 
  0.8333333E-01  0.2777778E-01  0.0000000E+00  0.4629630E-02
    1      -22.130359
    2      -17.561134
    3      -15.393677
    4      -10.241144
    5       -9.035352
    6       -6.084876
    7       -5.894429
    8       -5.426597
    9       -0.822351
   10        0.605229
   11        1.406152
   12        1.792653
 
  0.1250000E+00  0.2777778E-01  0.0000000E+00  0.4629630E-02
    1      -22.080154
    2      -17.918906
    3      -14.960804
    4      -10.181399
    5       -8.986110
    6       -6.292466
    7       -5.994020
    8       -5.685229
    9       -0.485622
   10        0.673322
   11        1.475129
   12        1.862506
 
  0.1666667E+00  0.2777778E-01  0.0000000E+00  0.4629630E-02
    1      -22.009914
    2      -18.284273
    3      -14.490891
    4      -10.097890
    5       -8.917526
    6       -6.568842
    7       -6.129611
    8       -5.994819
    9       -0.067872
   10        0.768672
   11        1.571664
   12        1.960305
 
  0.2083333E+00  0.2777778E-01  0.0000000E+00  0.4629630E-02
    1      -21.919690
    2      -18.643660
    3      -13.998131
    4       -9.990761
    5       -8.829970
    6       -6.905961
    7       -6.331688
    8       -6.294295
    9        0.406007
   10        0.891283
   11        1.695721
   12        2.086051
 
  0.2500000E+00  0.2777778E-01  0.0000000E+00  0.4629630E-02
    1      -21.809543
    2      -18.991443
    3      -13.488967
    4       -9.860200
    5       -8.723937
    6       -7.294954
    7       -6.679811
    8       -6.481123
    9        0.918368
   10        1.041150
   11        1.847243
   12        2.239743
 
  0.2916667E+00  0.2777778E-01  0.0000000E+00  0.4629630E-02
    1      -21.679558
    2      -19.324841
    3      -12.967224
    4       -9.706454
    5       -8.600062
    6       -7.726906
    7       -7.028670
    8       -6.683552
    9        1.218252
   10        1.456579
   11        2.026143
   12        2.421382
 
  0.3333333E+00  0.2777778E-01  0.0000000E+00  0.4629630E-02
    1      -21.529831
    2      -19.642270
    3      -12.435789
    4       -9.529834
    5       -8.459141
    6       -8.193411
    7       -7.371308
    8       -6.895677
    9        1.422554
   10        2.010856
   11        2.232280
   12        2.630960
 
  0.3750000E+00  0.2777778E-01  0.0000000E+00  0.4629630E-02
    1      -21.360482
    2      -19.942732
    3      -11.897261
    4       -9.330733
    5       -8.686879
    6       -8.302160
    7       -7.703018
    8       -7.112319
    9        1.654006
   10        2.465395
   11        2.572110
   12        2.868472
 
  0.4166667E+00  0.2777778E-01  0.0000000E+00  0.4629630E-02
    1      -21.171653
    2      -20.225535
    3      -11.354270
    4       -9.200628
    5       -9.109640
    6       -8.130329
    7       -8.020520
    8       -7.329039
    9        1.912541
   10        2.724940
   11        3.125846
   12        3.133904
 
  0.4583333E+00  0.2777778E-01  0.0000000E+00  0.4629630E-02
    1      -20.963513
    2      -20.490176
    3      -10.809662
    4       -9.728873
    5       -8.867174
    6       -8.321463
    7       -7.945118
    8       -7.542085
    9        2.198067
   10        2.849547
   11        3.009402
   12        3.427509
 
  0.5000000E+00  0.2777778E-01  0.0000000E+00  0.2314815E-02
    1      -20.736271
    2      -20.736271
    3      -10.266639
    4      -10.266639
    5       -8.604115
    6       -8.604115
    7       -7.748315
    8       -7.748315
    9        2.510462
   10        2.510462
   11        3.312069
   12        3.312069
 
  0.0000000E+00  0.5555556E-01  0.0000000E+00  0.2314815E-02
    1      -22.129348
    2      -17.072351
    3      -15.872396
    4      -10.239940
    5       -9.256805
    6       -5.991156
    7       -5.987440
    8       -5.136786
    9       -1.135926
   10        0.606639
   11        1.407480
   12        1.793998
 
  0.4166667E-01  0.5555556E-01  0.0000000E+00  0.4629630E-02
    1      -22.119304
    2      -17.215191
    3      -15.714602
    4      -10.227984
    5       -9.246859
    6       -6.064982
    7       -5.976009
    8       -5.200589
    9       -1.056678
   10        0.620253
   11        1.421277
   12        1.807968
 
  0.8333333E-01  0.5555556E-01  0.0000000E+00  0.4629630E-02
    1      -22.089181
    2      -17.524454
    3      -15.360562
    4      -10.192135
    5       -9.217066
    6       -6.205086
    7       -6.020463
    8       -5.377995
    9       -0.833104
   10        0.661102
   11        1.462664
   12        1.849879
 
  0.1250000E+00  0.5555556E-01  0.0000000E+00  0.4629630E-02
    1      -22.038999
    2      -17.881560
    3      -14.929123
    4      -10.132451
    5       -9.167568
    6       -6.409277
    7       -6.115499
    8       -5.637610
    9       -0.497099
   10        0.729199
   11        1.531629
   12        1.919734
 
  0.1666667E+00  0.5555556E-01  0.0000000E+00  0.4629630E-02
    1      -21.968793
    2      -18.246355
    3      -14.460892
    4      -10.049029
    5       -9.098602
    6       -6.674845
    7       -6.252435
    8       -5.947939
    9       -0.081009
   10        0.824557
   11        1.628147
   12        2.017535
 
  0.2083333E+00  0.5555556E-01  0.0000000E+00  0.4629630E-02
    1      -21.878612
    2      -18.605252
    3      -13.970114
    4       -9.942011
    5       -9.010515
    6       -6.997075
    7       -6.422067
    8       -6.285247
    9        0.390220
   10        0.947181
   11        1.752184
   12        2.143284
 
  0.2500000E+00  0.5555556E-01  0.0000000E+00  0.4629630E-02
    1      -21.768520
    2      -18.952613
    3      -13.463294
    4       -9.811586
    5       -8.903767
    6       -7.369703
    7       -6.633556
    8       -6.615611
    9        0.899004
   10        1.097066
   11        1.903684
   12        2.296982
 
  0.2916667E+00  0.5555556E-01  0.0000000E+00  0.4629630E-02
    1      -21.638602
    2      -19.285648
    3      -12.944334
    4       -9.657999
    5       -8.778951
    6       -7.785560
    7       -6.982417
    8       -6.825244
    9        1.274191
   10        1.432833
   11        2.082565
   12        2.478627
 
  0.3333333E+00  0.5555556E-01  0.0000000E+00  0.4629630E-02
    1      -21.488955
    2      -19.602764
    3      -12.416215
    4       -9.481563
    5       -8.636812
    6       -8.237233
    7       -7.324935
    8       -7.044288
    9        1.478520
   10        1.982131
   11        2.288689
   12        2.688215
 
  0.3750000E+00  0.5555556E-01  0.0000000E+00  0.4629630E-02
    1      -21.319701
    2      -19.902954
    3      -11.881648
    4       -9.282668
    5       -8.717568
    6       -8.478273
    7       -7.656448
    8       -7.267170
    9        1.710002
   10        2.521810
   11        2.538343
   12        2.925739
 
  0.4166667E+00  0.5555556E-01  0.0000000E+00  0.4629630E-02
    1      -21.130983
    2      -20.185524
    3      -11.343397
    4       -9.219978
    5       -9.061803
    6       -8.304467
    7       -7.973710
    8       -7.489295
    9        1.968570
   10        2.781397
   11        3.089598
   12        3.191193
 
  0.4583333E+00  0.5555556E-01  0.0000000E+00  0.4629630E-02
    1      -20.922973
    2      -20.449962
    3      -10.804466
    4       -9.738585
    5       -8.819582
    6       -8.274393
    7       -8.116780
    8       -7.706900
    9        2.254137
   10        2.905760
   11        3.065949
   12        3.540771
 
  0.5000000E+00  0.5555556E-01  0.0000000E+00  0.2314815E-02
    1      -20.695882
    2      -20.695882
    3      -10.268237
    4      -10.268237
    5       -8.556780
    6       -8.556780
    7       -7.916903
    8       -7.916903
    9        2.566588
   10        2.566588
   11        3.368195
   12        3.368196
 
  0.0000000E+00  0.8333333E-01  0.0000000E+00  0.2314815E-02
    1      -22.060728
    2      -17.013165
    3      -15.814789
    4      -10.158291
    5       -9.544679
    6       -6.254323
    7       -6.130720
    8       -5.053602
    9       -1.156567
   10        0.699764
   11        1.501659
   12        1.889376
 
  0.4166667E-01  0.8333333E-01  0.0000000E+00  0.4629630E-02
    1      -22.050692
    2      -17.155312
    3      -15.657949
    4      -10.146356
    5       -9.534637
    6       -6.306348
    7       -6.138061
    8       -5.118125
    9       -1.077185
   10        0.713377
   11        1.515451
   12        1.903346
 
  0.8333333E-01  0.8333333E-01  0.0000000E+00  0.4629630E-02
    1      -22.020592
    2      -17.463386
    3      -15.305888
    4      -10.110571
    5       -9.504550
    6       -6.439029
    7       -6.181352
    8       -5.297187
    9       -0.853715
   10        0.754224
   11        1.556825
   12        1.945257
 
  0.1250000E+00  0.8333333E-01  0.0000000E+00  0.4629630E-02
    1      -21.970449
    2      -17.819389
    3      -14.876901
    4      -10.050992
    5       -9.454539
    6       -6.632296
    7       -6.274465
    8       -5.558516
    9       -0.518941
   10        0.822319
   11        1.625766
   12        2.015112
 
  0.1666667E+00  0.8333333E-01  0.0000000E+00  0.4629630E-02
    1      -21.900298
    2      -18.183229
    3      -14.411583
    4       -9.967719
    5       -9.384812
    6       -6.878943
    7       -6.414909
    8       -5.870118
    9       -0.105709
   10        0.917679
   11        1.722254
   12        2.112914
 
  0.2083333E+00  0.8333333E-01  0.0000000E+00  0.4629630E-02
    1      -21.810189
    2      -18.541303
    3      -13.924264
    4       -9.860891
    5       -9.295662
    6       -7.175193
    7       -6.594179
    8       -6.208172
    9        0.360947
   10        1.040313
   11        1.846253
   12        2.238667
 
  0.2500000E+00  0.8333333E-01  0.0000000E+00  0.4629630E-02
    1      -21.700190
    2      -18.887958
    3      -13.421564
    4       -9.730698
    5       -9.187486
    6       -7.517889
    7       -6.801658
    8       -6.556786
    9        0.863556
   10        1.190214
   11        1.997712
   12        2.392371
 
  0.2916667E+00  0.8333333E-01  0.0000000E+00  0.4629630E-02
    1      -21.570383
    2      -19.220383
    3      -12.907536
    4       -9.577387
    5       -9.060790
    6       -7.903221
    7       -7.026987
    8       -6.905635
    9        1.367361
   10        1.389804
   11        2.176552
   12        2.574025
 
  0.3333333E+00  0.8333333E-01  0.0000000E+00  0.4629630E-02
    1      -21.420870
    2      -19.536973
    3      -12.385341
    4       -9.401267
    5       -8.916210
    6       -8.326245
    7       -7.261417
    8       -7.247934
    9        1.571717
   10        1.930425
   11        2.382648
   12        2.783624
 
  0.3750000E+00  0.8333333E-01  0.0000000E+00  0.4629630E-02
    1      -21.251774
    2      -19.836709
    3      -11.857913
    4       -9.202727
    5       -8.781119
    6       -8.754528
    7       -7.579099
    8       -7.498171
    9        1.803230
   10        2.477550
   11        2.615774
   12        3.021163
 
  0.4166667E+00  0.8333333E-01  0.0000000E+00  0.4629630E-02
    1      -21.063241
    2      -20.118886
    3      -11.328290
    4       -9.261666
    5       -8.982254
    6       -8.576707
    7       -7.895940
    8       -7.732176
    9        2.061831
   10        2.875437
   11        3.022221
   12        3.286716
 
  0.4583333E+00  0.8333333E-01  0.0000000E+00  0.4629630E-02
    1      -20.855449
    2      -20.382985
    3      -10.799806
    4       -9.761879
    5       -8.740455
    6       -8.383926
    7       -8.196171
    8       -7.959630
    9        2.347435
   10        2.999178
   11        3.160166
   12        3.526668
 
  0.5000000E+00  0.8333333E-01  0.0000000E+00  0.2314815E-02
    1      -20.628611
    2      -20.628611
    3      -10.276232
    4      -10.276232
    5       -8.478100
    6       -8.478100
    7       -8.177634
    8       -8.177634
    9        2.659932
   10        2.659932
   11        3.461395
   12        3.461395
 
  0.0000000E+00  0.1111111E+00  0.0000000E+00  0.2314815E-02
    1      -21.964744
    2      -16.930332
    3      -15.735330
    4      -10.044227
    5       -9.919552
    6       -6.602378
    7       -6.322119
    8       -4.937291
    9       -1.191197
   10        0.830148
   11        1.633456
   12        2.022908
 
  0.4166667E-01  0.1111111E+00  0.0000000E+00  0.4629630E-02
    1      -21.954719
    2      -17.071570
    3      -15.579795
    4      -10.032323
    5       -9.909339
    6       -6.649587
    7       -6.330306
    8       -5.002918
    9       -1.111570
   10        0.843758
   11        1.647241
   12        2.036878
 
  0.8333333E-01  0.1111111E+00  0.0000000E+00  0.4629630E-02
    1      -21.924651
    2      -17.378032
    3      -15.230551
    4       -9.996630
    5       -9.878729
    6       -6.776340
    7       -6.368191
    8       -5.184496
    9       -0.888168
   10        0.884593
   11        1.688592
   12        2.078787
 
  0.1250000E+00  0.1111111E+00  0.0000000E+00  0.4629630E-02
    1      -21.874562
    2      -17.732506
    3      -14.805157
    4       -9.937206
    5       -9.827808
    6       -6.961307
    7       -6.452478
    8       -5.448389
    9       -0.555140
   10        0.952673
   11        1.757496
   12        2.148640
 
  0.1666667E+00  0.1111111E+00  0.0000000E+00  0.4629630E-02
    1      -21.804489
    2      -18.095004
    3      -14.344185
    4       -9.854149
    5       -9.756721
    6       -7.192029
    7       -6.588040
    8       -5.761864
    9       -0.146081
   10        1.048018
   11        1.853932
   12        2.246442
 
  0.2083333E+00  0.1111111E+00  0.0000000E+00  0.4629630E-02
    1      -21.714483
    2      -18.451918
    3      -13.862098
    4       -9.747600
    5       -9.665673
    6       -7.462176
    7       -6.771056
    8       -6.100988
    9        0.313872
   10        1.170642
   11        1.977868
   12        2.372196
 
  0.2500000E+00  0.1111111E+00  0.0000000E+00  0.4629630E-02
    1      -21.604613
    2      -18.797573
    3      -13.365717
    4       -9.617749
    5       -9.554933
    6       -7.769002
    7       -6.992260
    8       -6.450017
    9        0.807427
   10        1.320541
   11        2.129254
   12        2.525904
 
  0.2916667E+00  0.1111111E+00  0.0000000E+00  0.4629630E-02
    1      -21.474963
    2      -19.129136
    3      -12.859352
    4       -9.464840
    5       -9.424834
    6       -8.111779
    7       -7.239405
    8       -6.798819
    9        1.322554
   10        1.497694
   11        2.308021
   12        2.707565
 
  0.3333333E+00  0.1111111E+00  0.0000000E+00  0.4629630E-02
    1      -21.325638
    2      -19.444982
    3      -12.346496
    4       -9.289184
    5       -9.275785
    6       -8.490135
    7       -7.499818
    8       -7.140766
    9        1.702062
   10        1.850364
   11        2.514058
   12        2.917174
 
  0.3750000E+00  0.1111111E+00  0.0000000E+00  0.4629630E-02
    1      -21.156765
    2      -19.744075
    3      -11.830505
    4       -9.108272
    5       -9.091166
    6       -8.902488
    7       -7.762688
    8       -7.471396
    9        1.933587
   10        2.383660
   11        2.747173
   12        3.154726
 
  0.4166667E+00  0.1111111E+00  0.0000000E+00  0.4629630E-02
    1      -20.968493
    2      -20.025697
    3      -11.314950
    4       -9.345334
    5       -8.922875
    6       -8.871270
    7       -8.020219
    8       -7.787603
    9        2.192199
   10        2.915610
   11        3.006946
   12        3.420318
 
  0.4583333E+00  0.1111111E+00  0.0000000E+00  0.4629630E-02
    1      -20.761008
    2      -20.289317
    3      -10.803821
    4       -9.813628
    5       -8.720295
    6       -8.630096
    7       -8.267454
    8       -8.087155
    9        2.477810
   10        3.129565
   11        3.292000
   12        3.433696
 
  0.5000000E+00  0.1111111E+00  0.0000000E+00  0.2314815E-02
    1      -20.534528
    2      -20.534528
    3      -10.301665
    4      -10.301665
    5       -8.501419
    6       -8.501419
    7       -8.368403
    8       -8.368403
    9        2.790311
   10        2.790311
   11        3.590099
   12        3.590100
 
  0.0000000E+00  0.1388889E+00  0.0000000E+00  0.2314815E-02
    1      -21.841483
    2      -16.823883
    3      -15.635508
    4      -10.360535
    5       -9.898002
    6       -7.013423
    7       -6.561525
    8       -4.788004
    9       -1.245437
   10        0.997791
   11        1.802814
   12        2.194598
 
  0.4166667E-01  0.1388889E+00  0.0000000E+00  0.4629630E-02
    1      -21.831472
    2      -16.964062
    3      -15.481609
    4      -10.350030
    5       -9.886140
    6       -7.060151
    7       -6.565508
    8       -4.855242
    9       -1.165366
   10        1.011392
   11        1.816587
   12        2.208566
 
  0.8333333E-01  0.1388889E+00  0.0000000E+00  0.4629630E-02
    1      -21.801446
    2      -17.268556
    3      -15.136096
    4      -10.318525
    5       -9.850573
    6       -7.186544
    7       -6.590296
    8       -5.040439
    9       -0.941846
   10        1.052204
   11        1.857902
   12        2.250472
 
  0.1250000E+00  0.1388889E+00  0.0000000E+00  0.4629630E-02
    1      -21.751428
    2      -17.621086
    3      -14.715675
    4      -10.266037
    5       -9.791360
    6       -7.369584
    7       -6.655926
    8       -5.307939
    9       -0.611046
   10        1.120248
   11        1.926746
   12        2.320319
 
  0.1666667E+00  0.1388889E+00  0.0000000E+00  0.4629630E-02
    1      -21.681456
    2      -17.981852
    3      -14.260886
    4      -10.192596
    5       -9.708597
    6       -7.593202
    7       -6.773192
    8       -5.623982
    9       -0.207584
   10        1.215551
   11        2.023098
   12        2.418115
 
  0.2083333E+00  0.1388889E+00  0.0000000E+00  0.4629630E-02
    1      -21.591582
    2      -18.337257
    3      -13.786407
    4      -10.098228
    5       -9.602429
    6       -7.847956
    7       -6.943853
    8       -5.964523
    9        0.243312
   10        1.338132
   11        2.146927
   12        2.543864
 
  0.2500000E+00  0.1388889E+00  0.0000000E+00  0.4629630E-02
    1      -21.481878
    2      -18.681606
    3      -13.299402
    4       -9.982945
    5       -9.473043
    6       -8.128743
    7       -7.163170
    8       -6.314055
    9        0.724647
   10        1.487996
   11        2.298187
   12        2.697570
 
  0.2916667E+00  0.1388889E+00  0.0000000E+00  0.4629630E-02
    1      -21.352431
    2      -19.012041
    3      -12.804659
    4       -9.846722
    5       -9.320686
    6       -8.433709
    7       -7.421612
    8       -6.662725
    9        1.224790
   10        1.665122
   11        2.476816
   12        2.879233
 
  0.3333333E+00  0.1388889E+00  0.0000000E+00  0.4629630E-02
    1      -21.203350
    2      -19.326915
    3      -12.306303
    4       -9.689474
    5       -9.145665
    6       -8.763613
    7       -7.706337
    8       -7.004134
    9        1.735302
   10        1.869470
   11        2.682724
   12        3.088849
 
  0.3750000E+00  0.1388889E+00  0.0000000E+00  0.4629630E-02
    1      -21.034764
    2      -19.625169
    3      -11.808523
    4       -9.511023
    5       -9.120830
    6       -8.948365
    7       -8.002990
    8       -7.333986
    9        2.100976
   10        2.249599
   11        2.915766
   12        3.326411
 
  0.4166667E+00  0.1388889E+00  0.0000000E+00  0.4629630E-02
    1      -20.846834
    2      -19.906066
    3      -11.315947
    4       -9.507627
    5       -9.311095
    6       -8.729263
    7       -8.298039
    8       -7.649288
    9        2.359563
   10        2.762101
   11        3.175652
   12        3.591943
 
  0.4583333E+00  0.1388889E+00  0.0000000E+00  0.4629630E-02
    1      -20.639748
    2      -20.169061
    3      -10.833818
    4       -9.924229
    5       -9.089380
    6       -8.581064
    7       -8.488954
    8       -7.947886
    9        2.645135
   10        3.267209
   11        3.296752
   12        3.461312
 
  0.5000000E+00  0.1388889E+00  0.0000000E+00  0.2314815E-02
    1      -20.413733
    2      -20.413733
    3      -10.367946
    4      -10.367946
    5       -8.845781
    6       -8.845781
    7       -8.228180
    8       -8.228180
    9        2.957578
   10        2.957578
   11        3.718144
   12        3.718161
 
  0.0000000E+00  0.1666667E+00  0.0000000E+00  0.2314815E-02
    1      -21.691063
    2      -16.693856
    3      -15.517819
    4      -10.846999
    5       -9.719955
    6       -7.470603
    7       -6.844278
    8       -4.605942
    9       -1.326185
   10        1.202677
   11        2.009651
   12        2.404446
 
  0.4166667E-01  0.1666667E+00  0.0000000E+00  0.4629630E-02
    1      -21.681069
    2      -16.832939
    3      -15.365866
    4      -10.835994
    5       -9.708148
    6       -7.518272
    7       -6.842171
    8       -4.675507
    9       -1.245292
   10        1.216265
   11        2.023404
   12        2.418412
 
  0.8333333E-01  0.1666667E+00  0.0000000E+00  0.4629630E-02
    1      -21.651095
    2      -17.135199
    3      -15.025187
    4      -10.802942
    5       -9.672747
    6       -7.647144
    7       -6.849584
    8       -4.865825
    9       -1.021158
   10        1.257040
   11        2.064661
   12        2.460311
 
  0.1250000E+00  0.1666667E+00  0.0000000E+00  0.4629630E-02
    1      -21.601164
    2      -17.485394
    3      -14.611613
    4      -10.747729
    5       -9.613810
    6       -7.832224
    7       -6.890086
    8       -5.138271
    9       -0.692910
   10        1.325023
   11        2.133407
   12        2.530148
 
  0.1666667E+00  0.1666667E+00  0.0000000E+00  0.4629630E-02
    1      -21.531315
    2      -17.844025
    3      -14.165669
    4      -10.670141
    5       -9.531436
    6       -8.054873
    7       -6.979330
    8       -5.457705
    9       -0.296510
   10        1.420249
   11        2.229618
   12        2.627930
 
  0.2083333E+00  0.1666667E+00  0.0000000E+00  0.4629630E-02
    1      -21.441604
    2      -18.197549
    3      -13.702424
    4      -10.569825
    5       -9.425768
    6       -8.303500
    7       -7.123829
    8       -5.800020
    9        0.142819
   10        1.542745
   11        2.353261
   12        2.753665
 
  0.2500000E+00  0.1666667E+00  0.0000000E+00  0.4629630E-02
    1      -21.332104
    2      -18.540265
    3      -13.229703
    4      -10.446230
    5       -9.296997
    6       -8.571033
    7       -7.323277
    8       -6.150089
    9        0.608578
   10        1.692525
   11        2.504288
   12        2.907360
 
  0.2916667E+00  0.1666667E+00  0.0000000E+00  0.4629630E-02
    1      -21.202907
    2      -18.869290
    3      -12.753243
    4      -10.298527
    5       -9.145369
    6       -8.853503
    7       -7.572235
    8       -6.498462
    9        1.089728
   10        1.869576
   11        2.682637
   12        3.089016
 
  0.3333333E+00  0.1666667E+00  0.0000000E+00  0.4629630E-02
    1      -21.054126
    2      -19.182947
    3      -12.278458
    4      -10.125522
    5       -9.149517
    6       -8.971191
    7       -7.861327
    8       -6.839056
    9        1.578422
   10        2.073857
   11        2.888226
   12        3.298631
 
  0.3750000E+00  0.1666667E+00  0.0000000E+00  0.4629630E-02
    1      -20.885899
    2      -19.480151
    3      -11.811175
    4       -9.925619
    5       -9.460134
    6       -8.774845
    7       -8.178189
    8       -7.167794
    9        2.068701
   10        2.305300
   11        3.120949
   12        3.536198
 
  0.4166667E+00  0.1666667E+00  0.0000000E+00  0.4629630E-02
    1      -20.698391
    2      -19.760144
    3      -11.357831
    4       -9.788688
    5       -9.696992
    6       -8.556804
    7       -8.508415
    8       -7.481834
    9        2.555755
   10        2.563815
   11        3.380667
   12        3.801706
 
  0.4583333E+00  0.1666667E+00  0.0000000E+00  0.4629630E-02
    1      -20.491800
    2      -20.022360
    3      -10.925033
    4      -10.139955
    5       -9.438275
    6       -8.836903
    7       -8.317653
    8       -7.779120
    9        2.849296
   10        3.035489
   11        3.500616
   12        3.667177
 
  0.5000000E+00  0.1666667E+00  0.0000000E+00  0.2314815E-02
    1      -20.266362
    2      -20.266362
    3      -10.518247
    4      -10.518247
    5       -9.150059
    6       -9.150059
    7       -8.058118
    8       -8.058118
    9        3.161614
   10        3.161614
   11        3.504246
   12        3.504247
 