       N       E                     dE             d eps       ncg     rms          rms(c)
DAV:   1     0.190991429594E+03    0.19099E+03   -0.10631E+04  5928   0.275E+03
DAV:   2    -0.916922602337E+01   -0.20016E+03   -0.17771E+03 10440   0.258E+02
DAV:   3    -0.382916404506E+02   -0.29122E+02   -0.28543E+02  7380   0.119E+02    0.725E+00
RMM:   4    -0.376707374557E+02    0.62090E+00   -0.94660E+00  5928   0.264E+01    0.420E+00
RMM:   5    -0.369251281045E+02    0.74561E+00   -0.27732E+00  5931   0.114E+01    0.721E-01
RMM:   6    -0.369263780048E+02   -0.12499E-02   -0.79444E-02  6357   0.202E+00    0.514E-01
RMM:   7    -0.369170763441E+02    0.93017E-02   -0.32779E-02  5938   0.158E+00    0.340E-01
RMM:   8    -0.369116352115E+02    0.54411E-02   -0.70884E-03  5928   0.559E-01    0.137E-01
RMM:   9    -0.369113249892E+02    0.31022E-03   -0.20871E-02  5928   0.856E-01    0.160E-01
RMM:  10    -0.369111712610E+02    0.15373E-03   -0.25219E-03  5928   0.363E-01    0.292E-02
RMM:  11    -0.369136638136E+02   -0.24926E-02   -0.74216E-04  5928   0.179E-01    0.453E-02
RMM:  12    -0.369141186084E+02   -0.45479E-03   -0.22301E-04  5937   0.988E-02    0.530E-03
RMM:  13    -0.369143765488E+02   -0.25794E-03   -0.52359E-05  6011   0.403E-02    0.409E-03
RMM:  14    -0.369144597039E+02   -0.83155E-04   -0.10836E-05  5946   0.181E-02    0.185E-03
RMM:  15    -0.369144694897E+02   -0.97858E-05   -0.16577E-06  5993   0.747E-03    0.121E-03
RMM:  16    -0.369144814674E+02   -0.11978E-04   -0.74268E-07  5929   0.552E-03    0.857E-04
RMM:  17    -0.369144859151E+02   -0.44477E-05   -0.43076E-08  6097   0.136E-03    0.703E-04
RMM:  18    -0.369144872185E+02   -0.13034E-05   -0.68642E-08  5928   0.192E-03    0.127E-04
RMM:  19    -0.369144878994E+02   -0.68092E-06   -0.93090E-09  6036   0.492E-04    0.187E-05
RMM:  20    -0.369144879540E+02   -0.54555E-07   -0.75380E-10  4486   0.133E-04    0.244E-05
RMM:  21    -0.369144879729E+02   -0.18911E-07   -0.26199E-10  4409   0.929E-05    0.518E-06
RMM:  22    -0.369144879728E+02    0.45475E-10   -0.12554E-11  3897   0.475E-05
   1 F= -.36914488E+02 E0= -.36914473E+02  d E =-.369145E+02
       N       E                     dE             d eps       ncg     rms          rms(c)
DAV:   1    -0.369144879060E+02    0.66893E-07   -0.60216E-06  6684   0.231E-02    0.479E-04
RMM:   2    -0.369144879112E+02   -0.52064E-08   -0.97610E-08  5977   0.276E-03    0.345E-04
RMM:   3    -0.369144879095E+02    0.17008E-08   -0.16855E-08  5971   0.105E-03    0.902E-05
RMM:   4    -0.369144879093E+02    0.17121E-09   -0.10930E-09  5840   0.263E-04    0.256E-05
RMM:   5    -0.369144879089E+02    0.38619E-09   -0.58682E-11  3821   0.693E-05    0.103E-05
RMM:   6    -0.369144879092E+02   -0.22999E-09   -0.15993E-11  3500   0.462E-05    0.212E-06
RMM:   7    -0.369144879090E+02    0.12585E-09   -0.98855E-12  3345   0.373E-05    0.582E-07
RMM:   8    -0.369144879093E+02   -0.25580E-09   -0.46384E-12  3063   0.317E-05    0.384E-07
RMM:   9    -0.369144879094E+02   -0.13472E-09   -0.53647E-12  2762   0.289E-05    0.349E-07
RMM:  10    -0.369144879092E+02    0.22146E-09   -0.30485E-12  2518   0.252E-05    0.785E-08
RMM:  11    -0.369144879093E+02   -0.12778E-09   -0.34103E-12  2342   0.231E-05    0.720E-08
RMM:  12    -0.369144879090E+02    0.30116E-09   -0.16757E-12  2213   0.209E-05    0.239E-08
RMM:  13    -0.369144879094E+02   -0.39211E-09   -0.98512E-13  2079   0.199E-05    0.525E-08
RMM:  14    -0.369144879091E+02    0.31082E-09   -0.14972E-12  1997   0.192E-05    0.413E-08
RMM:  15    -0.369144879091E+02    0.43769E-10   -0.30243E-14  1902   0.181E-05
   2 F= -.36914488E+02 E0= -.36914473E+02  d E =0.637616E-07
       N       E                     dE             d eps       ncg     rms          rms(c)
DAV:   1    -0.369144879796E+02   -0.70509E-07   -0.38315E-06  6660   0.184E-02    0.385E-04
RMM:   2    -0.369144879810E+02   -0.13443E-08   -0.59916E-08  5946   0.220E-03    0.275E-04
RMM:   3    -0.369144879786E+02    0.23906E-08   -0.10566E-08  5957   0.828E-04    0.696E-05
RMM:   4    -0.369144879786E+02   -0.82991E-11   -0.63364E-10  5410   0.206E-04    0.202E-05
RMM:   5    -0.369144879784E+02    0.13199E-09   -0.34891E-11  3738   0.619E-05    0.829E-06
RMM:   6    -0.369144879785E+02   -0.56048E-10   -0.13520E-11  3318   0.437E-05
   3 F= -.36914488E+02 E0= -.36914473E+02  d E =-.694392E-07
