gr                                      
           1
     4.316205    0.000000    0.000000
     0.000000    2.462831    0.000000
     0.000000    0.000000   19.834077
   C 
   4
Direct configuration=     1
   0.99975412  0.00000000  0.00000000
   0.16691255  0.50000000  0.00000000
   0.49975412  0.50000000  0.00000000
   0.66691255  0.00000000  0.00000000
Direct configuration=     2
   0.99975951 -0.00000000  0.00000000
   0.16690716  0.50000000 -0.00000000
   0.49975951  0.50000000  0.00000000
   0.66690716  0.00000000 -0.00000000
Direct configuration=     3
   0.99975521 -0.00000000  0.00000000
   0.16691146  0.50000000 -0.00000000
   0.49975521  0.50000000  0.00000000
   0.66691146  0.00000000 -0.00000000
