 running on    8 total cores
 distrk:  each k-point on    8 cores,    1 groups
 distr:  one band on    2 cores,    4 groups
 using from now: INCAR     
 vasp.5.3.5 31Mar14 (build Mar 02 2015 18:14:16) complex                        
  
 POSCAR found type information on POSCAR  C 
 POSCAR found :  1 types and       4 ions
 LDA part: xc-table for Pade appr. of Perdew
 POSCAR, INCAR and KPOINTS ok, starting setup
 WARNING: small aliasing (wrap around) errors must be expected
 FFT: planning ...
 WAVECAR not read
 entering main loop
       N       E                     dE             d eps       ncg     rms          rms(c)
DAV:   1     0.187563795374E+03    0.18756E+03   -0.10589E+04  5928   0.274E+03
DAV:   2    -0.963884684996E+01   -0.19720E+03   -0.17525E+03 10400   0.262E+02
DAV:   3    -0.382588432273E+02   -0.28620E+02   -0.28159E+02  7436   0.119E+02    0.721E+00
RMM:   4    -0.376398265408E+02    0.61902E+00   -0.92174E+00  5928   0.261E+01    0.416E+00
RMM:   5    -0.369100411962E+02    0.72979E+00   -0.27296E+00  5931   0.113E+01    0.713E-01
RMM:   6    -0.369117690847E+02   -0.17279E-02   -0.82035E-02  6377   0.202E+00    0.514E-01
RMM:   7    -0.369027563809E+02    0.90127E-02   -0.32994E-02  5943   0.158E+00    0.339E-01
RMM:   8    -0.368972227159E+02    0.55337E-02   -0.74610E-03  5928   0.573E-01    0.132E-01
RMM:   9    -0.368970741958E+02    0.14852E-03   -0.20222E-02  5928   0.842E-01    0.160E-01
RMM:  10    -0.368968837898E+02    0.19041E-03   -0.25990E-03  5928   0.366E-01    0.293E-02
RMM:  11    -0.368993239618E+02   -0.24402E-02   -0.70601E-04  5928   0.175E-01    0.452E-02
RMM:  12    -0.368997757202E+02   -0.45176E-03   -0.21744E-04  5938   0.976E-02    0.565E-03
RMM:  13    -0.369000369789E+02   -0.26126E-03   -0.55322E-05  5999   0.418E-02    0.438E-03
RMM:  14    -0.369001185427E+02   -0.81564E-04   -0.11310E-05  5947   0.189E-02    0.197E-03
RMM:  15    -0.369001281841E+02   -0.96415E-05   -0.17199E-06  5985   0.774E-03    0.126E-03
RMM:  16    -0.369001408441E+02   -0.12660E-04   -0.69536E-07  5934   0.523E-03    0.694E-04
RMM:  17    -0.369001456899E+02   -0.48457E-05   -0.43999E-08  6109   0.151E-03    0.819E-04
RMM:  18    -0.369001469083E+02   -0.12185E-05   -0.70479E-08  5928   0.194E-03    0.758E-05
RMM:  19    -0.369001476458E+02   -0.73744E-06   -0.10646E-08  6066   0.514E-04    0.290E-05
RMM:  20    -0.369001477055E+02   -0.59756E-07   -0.80273E-10  4458   0.132E-04    0.245E-05
RMM:  21    -0.369001477229E+02   -0.17392E-07   -0.27813E-10  4413   0.103E-04    0.329E-06
RMM:  22    -0.369001477232E+02   -0.25148E-09   -0.31034E-12  3890   0.400E-05    0.181E-06
RMM:  23    -0.369001477234E+02   -0.26284E-09   -0.92606E-12  3538   0.355E-05    0.851E-07
RMM:  24    -0.369001477233E+02    0.15382E-09   -0.82222E-12  3073   0.289E-05    0.219E-07
RMM:  25    -0.369001477234E+02   -0.90608E-10   -0.35819E-12  2753   0.245E-05
   1 F= -.36900148E+02 E0= -.36900146E+02  d E =-.369001E+02
 BRION: g(F)=  0.108E-05 g(S)=  0.000E+00
 bond charge predicted
       N       E                     dE             d eps       ncg     rms          rms(c)
DAV:   1    -0.369001460430E+02    0.16803E-05   -0.14503E-04  6292   0.113E-01    0.234E-03
RMM:   2    -0.369001461345E+02   -0.91510E-07   -0.23712E-06  5941   0.136E-02    0.170E-03
RMM:   3    -0.369001460533E+02    0.81249E-07   -0.39178E-07  5970   0.507E-03    0.428E-04
RMM:   4    -0.369001460485E+02    0.47800E-08   -0.23986E-08  6061   0.122E-03    0.124E-04
RMM:   5    -0.369001460472E+02    0.12839E-08   -0.18707E-09  5910   0.312E-04    0.559E-05
RMM:   6    -0.369001460471E+02    0.15075E-09   -0.26210E-10  4223   0.131E-04    0.584E-06
RMM:   7    -0.369001460475E+02   -0.41450E-09   -0.16192E-11  3753   0.585E-05    0.303E-06
RMM:   8    -0.369001460470E+02    0.46077E-09   -0.16521E-11  3458   0.439E-05    0.164E-06
RMM:   9    -0.369001460474E+02   -0.40302E-09   -0.60623E-12  3265   0.333E-05    0.233E-06
RMM:  10    -0.369001460474E+02    0.23874E-10   -0.30081E-12  2960   0.289E-05
   2 F= -.36900146E+02 E0= -.36900144E+02  d E =0.167599E-05
 BRION: g(F)=  0.179E-04 g(S)=  0.000E+00 retain N=  1 mean eig= 0.20
 eig:   0.197
 bond charge predicted
       N       E                     dE             d eps       ncg     rms          rms(c)
DAV:   1    -0.369001478050E+02   -0.17576E-05   -0.93332E-05  6592   0.910E-02    0.188E-03
RMM:   2    -0.369001478647E+02   -0.59692E-07   -0.14868E-06  5938   0.109E-02    0.136E-03
RMM:   3    -0.369001478315E+02    0.33193E-07   -0.24874E-07  5971   0.404E-03    0.332E-04
WARNING in EDDRMM: call to ZHEGV failed, returncode =   6  3  1
RMM:   4    -0.369001478254E+02    0.61452E-08   -0.14792E-08  6064   0.965E-04    0.992E-05
RMM:   5    -0.369001478267E+02   -0.12742E-08   -0.11560E-09  5453   0.248E-04    0.448E-05
RMM:   6    -0.369001478264E+02    0.25204E-09   -0.16458E-10  3903   0.106E-04    0.476E-06
RMM:   7    -0.369001478268E+02   -0.40461E-09   -0.99856E-12  3725   0.541E-05    0.261E-06
RMM:   8    -0.369001478269E+02   -0.60709E-10   -0.14323E-11  3415   0.426E-05
   3 F= -.36900148E+02 E0= -.36900146E+02  d E =-.177947E-05
 BRION: g(F)=  0.293E-11 g(S)=  0.000E+00 retain N=  1 mean eig= 0.20
 eig:   0.197
 bond charge predicted
       N       E                     dE             d eps       ncg     rms          rms(c)
DAV:   1    -0.369001478260E+02    0.80740E-09    0.61070E-09  4884   0.495E-05    0.104E-06
RMM:   2    -0.369001478267E+02   -0.71554E-09    0.26711E-13  2052   0.182E-05    0.646E-07
RMM:   3    -0.369001478267E+02    0.26830E-10   -0.46504E-13  1903   0.182E-05    0.794E-08
RMM:   4    -0.369001478265E+02    0.14381E-09   -0.18742E-13  1830   0.179E-05    0.530E-08
RMM:   5    -0.369001478269E+02   -0.31844E-09   -0.86180E-13  1772   0.175E-05    0.295E-08
RMM:   6    -0.369001478266E+02    0.29650E-09   -0.12604E-12  1687   0.170E-05    0.122E-08
RMM:   7    -0.369001478269E+02   -0.34834E-09   -0.69605E-13  1647   0.167E-05    0.156E-08
RMM:   8    -0.369001478268E+02    0.10687E-09   -0.98135E-13  1507   0.164E-05    0.140E-08
RMM:   9    -0.369001478267E+02    0.71282E-10   -0.37795E-13  1407   0.159E-05
   4 F= -.36900148E+02 E0= -.36900146E+02  d E =0.131081E-09
 BRION: g(F)=  0.405E-11 g(S)=  0.000E+00 retain N=  1 mean eig= 0.09
 eig:   0.091
 bond charge predicted
       N       E                     dE             d eps       ncg     rms          rms(c)
DAV:   1    -0.369001478262E+02    0.62550E-09    0.61251E-09  4548   0.237E-05    0.439E-07
RMM:   2    -0.369001478268E+02   -0.60879E-09   -0.33060E-14  1293   0.827E-06    0.274E-07
RMM:   3    -0.369001478267E+02    0.51273E-10    0.10533E-13  1318   0.808E-06    0.181E-08
RMM:   4    -0.369001478265E+02    0.23340E-09   -0.19104E-13  1307   0.810E-06    0.783E-09
RMM:   5    -0.369001478265E+02   -0.34447E-10   -0.48110E-15  1300   0.801E-06
   5 F= -.36900148E+02 E0= -.36900146E+02  d E =0.195655E-09
 BRION: g(F)=  0.342E-12 g(S)=  0.000E+00 retain N=  1 mean eig= 0.13
 eig:   0.128
 bond charge predicted
       N       E                     dE             d eps       ncg     rms          rms(c)
DAV:   1    -0.369001478263E+02    0.23533E-09    0.61262E-09  4528   0.129E-05    0.234E-07
RMM:   2    -0.369001478267E+02   -0.47248E-09    0.66778E-14   986   0.471E-06    0.144E-07
RMM:   3    -0.369001478269E+02   -0.18224E-09   -0.31909E-14   983   0.466E-06    0.386E-09
RMM:   4    -0.369001478267E+02    0.24113E-09   -0.51646E-14  1059   0.466E-06    0.140E-09
RMM:   5    -0.369001478266E+02    0.12903E-09    0.00000E+00   825   0.465E-06    0.553E-10
RMM:   6    -0.369001478265E+02    0.19782E-10    0.00000E+00  1046   0.465E-06
   6 F= -.36900148E+02 E0= -.36900146E+02  d E =0.500222E-11
 BRION: g(F)=  0.211E-13 g(S)=  0.000E+00 retain N=  1 mean eig= 0.17
 eig:   0.170
 reached required accuracy - stopping structural energy minimisation
