    4    4  400    1
  0.5270948E+02  0.4261861E-09  0.2504927E-09  0.1974942E-08  0.5000000E-15
  1.000000000000000E-004
  CAR 
 gr                                      
     16    247     12
 
  0.0000000E+00  0.0000000E+00  0.0000000E+00  0.1157407E-02
    1      -22.148390
    2      -16.826462
    3      -15.905394
    4      -10.277652
    5       -9.358560
    6       -5.918464
    7       -5.754073
    8       -4.984124
    9       -1.113122
   10        0.536478
   11        1.335799
   12        1.725025
 
  0.4166667E-01  0.0000000E+00  0.0000000E+00  0.2314815E-02
    1      -22.138063
    2      -17.009612
    3      -15.707128
    4      -10.265365
    5       -9.348234
    6       -5.941744
    7       -5.795264
    8       -5.052807
    9       -1.029160
   10        0.550478
   11        1.349955
   12        1.739357
 
  0.8333333E-01  0.0000000E+00  0.0000000E+00  0.2314815E-02
    1      -22.107086
    2      -17.364744
    3      -15.306734
    4      -10.228523
    5       -9.317305
    6       -6.010260
    7       -5.917267
    8       -5.242598
    9       -0.793710
   10        0.592475
   11        1.392420
   12        1.782354
 
  0.1250000E+00  0.0000000E+00  0.0000000E+00  0.2314815E-02
    1      -22.055479
    2      -17.751533
    3      -14.844813
    4      -10.167183
    5       -9.265924
    6       -6.120278
    7       -6.115617
    8       -5.517917
    9       -0.442876
   10        0.662469
   11        1.463182
   12        1.854015
 
  0.1666667E+00  0.0000000E+00  0.0000000E+00  0.2314815E-02
    1      -21.983276
    2      -18.137327
    3      -14.354479
    4      -10.081441
    5       -9.194351
    6       -6.383592
    7       -6.266258
    8       -5.844374
    9       -0.011938
   10        0.760455
   11        1.562220
   12        1.954342
 
  0.2083333E+00  0.0000000E+00  0.0000000E+00  0.2314815E-02
    1      -21.890528
    2      -18.512663
    3      -13.845869
    4       -9.971440
    5       -9.102959
    6       -6.713063
    7       -6.441624
    8       -6.196997
    9        0.472876
   10        0.886421
   11        1.689504
   12        2.083332
 
  0.2500000E+00  0.0000000E+00  0.0000000E+00  0.2314815E-02
    1      -21.777296
    2      -18.873774
    3      -13.323630
    4       -9.837366
    5       -8.992251
    6       -7.095311
    7       -6.639489
    8       -6.559464
    9        0.993592
   10        1.040347
   11        1.844988
   12        2.240983
 
  0.2916667E+00  0.0000000E+00  0.0000000E+00  0.2314815E-02
    1      -21.643662
    2      -19.218781
    3      -12.790772
    4       -9.679462
    5       -8.862869
    6       -7.521676
    7       -6.921323
    8       -6.853194
    9        1.222204
   10        1.537664
   11        2.028602
   12        2.427292
 
  0.3333333E+00  0.0000000E+00  0.0000000E+00  0.2314815E-02
    1      -21.489723
    2      -19.546574
    3      -12.249800
    4       -9.498038
    5       -8.715626
    6       -7.983995
    7       -7.275773
    8       -7.076653
    9        1.431947
   10        2.095613
   11        2.240242
   12        2.642250
 
  0.3750000E+00  0.0000000E+00  0.0000000E+00  0.2314815E-02
    1      -21.315592
    2      -19.856421
    3      -11.703155
    4       -9.293478
    5       -8.551525
    6       -8.474841
    7       -7.618253
    8       -7.304503
    9        1.669521
   10        2.479725
   11        2.659079
   12        2.885845
 
  0.4166667E+00  0.0000000E+00  0.0000000E+00  0.2314815E-02
    1      -21.121405
    2      -20.147788
    3      -11.153428
    4       -9.066263
    5       -8.987616
    6       -8.371801
    7       -7.945599
    8       -7.532137
    9        1.934841
   10        2.746689
   11        3.158051
   12        3.216214
 
  0.4583333E+00  0.0000000E+00  0.0000000E+00  0.2314815E-02
    1      -20.907321
    2      -20.420266
    3      -10.603494
    4       -9.516546
    5       -8.816995
    6       -8.255549
    7       -8.177961
    8       -7.755666
    9        2.227792
   10        2.895715
   11        3.040183
   12        3.458833
 
  0.5000000E+00  0.0000000E+00  0.0000000E+00  0.1157407E-02
    1      -20.673534
    2      -20.673534
    3      -10.056616
    4      -10.056616
    5       -8.546434
    6       -8.546434
    7       -7.971839
    8       -7.971839
    9        2.548192
   10        2.548192
   11        3.356131
   12        3.356131
 
  0.0000000E+00  0.2777778E-01  0.0000000E+00  0.2314815E-02
    1      -22.135128
    2      -16.815043
    3      -15.894535
    4      -10.261873
    5       -9.418044
    6       -5.973220
    7       -5.785547
    8       -4.968037
    9       -1.118443
   10        0.554434
   11        1.354006
   12        1.743456
 
  0.4166667E-01  0.2777778E-01  0.0000000E+00  0.4629630E-02
    1      -22.124802
    2      -16.998058
    3      -15.696461
    4      -10.249591
    5       -9.407692
    6       -6.000371
    7       -5.822156
    8       -5.036885
    9       -1.034444
   10        0.568435
   11        1.368161
   12        1.757789
 
  0.8333333E-01  0.2777778E-01  0.0000000E+00  0.4629630E-02
    1      -22.093829
    2      -17.352966
    3      -15.296466
    4      -10.212762
    5       -9.376686
    6       -6.083427
    7       -5.927616
    8       -5.227047
    9       -0.799004
   10        0.610436
   11        1.410623
   12        1.800786
 
  0.1250000E+00  0.2777778E-01  0.0000000E+00  0.4629630E-02
    1      -22.042230
    2      -17.739541
    3      -14.835055
    4      -10.151443
    5       -9.325173
    6       -6.231717
    7       -6.084737
    8       -5.502737
    9       -0.448435
   10        0.680435
   11        1.481379
   12        1.872449
 
  0.1666667E+00  0.2777778E-01  0.0000000E+00  0.4629630E-02
    1      -21.970038
    2      -18.125148
    3      -14.345341
    4      -10.065733
    5       -9.253403
    6       -6.461828
    7       -6.265085
    8       -5.829460
    9       -0.018124
   10        0.778429
   11        1.580411
   12        1.972777
 
  0.2083333E+00  0.2777778E-01  0.0000000E+00  0.4629630E-02
    1      -21.877303
    2      -18.500320
    3      -13.837476
    4       -9.955771
    5       -9.161738
    6       -6.769389
    7       -6.458719
    8       -6.182231
    9        0.465688
   10        0.904405
   11        1.707686
   12        2.101769
 
  0.2500000E+00  0.2777778E-01  0.0000000E+00  0.4629630E-02
    1      -21.764089
    2      -18.861291
    3      -13.316135
    4       -9.821745
    5       -9.050663
    6       -7.137471
    7       -6.667243
    8       -6.544751
    9        0.985056
   10        1.058343
   11        1.863160
   12        2.259423
 
  0.2916667E+00  0.2777778E-01  0.0000000E+00  0.4629630E-02
    1      -21.630477
    2      -19.206177
    3      -12.784359
    4       -9.663900
    5       -8.920800
    6       -7.553381
    7       -6.906597
    8       -6.888210
    9        1.240213
   10        1.527479
   11        2.046764
   12        2.445735
 
  0.3333333E+00  0.2777778E-01  0.0000000E+00  0.4629630E-02
    1      -21.476564
    2      -19.533866
    3      -12.244696
    4       -9.482541
    5       -8.772934
    6       -8.007492
    7       -7.260992
    8       -7.117068
    9        1.449971
   10        2.083551
   11        2.258394
   12        2.660699
 
  0.3750000E+00  0.2777778E-01  0.0000000E+00  0.4629630E-02
    1      -21.302463
    2      -19.843622
    3      -11.699639
    4       -9.278056
    5       -8.608034
    6       -8.491739
    7       -7.603392
    8       -7.349096
    9        1.687562
   10        2.497873
   11        2.645072
   12        2.904300
 
  0.4166667E+00  0.2777778E-01  0.0000000E+00  0.4629630E-02
    1      -21.108312
    2      -20.134912
    3      -11.151845
    4       -9.050924
    5       -8.999167
    6       -8.427290
    7       -7.930644
    8       -7.580020
    9        1.952903
   10        2.764845
   11        3.176517
   12        3.201006
 
  0.4583333E+00  0.2777778E-01  0.0000000E+00  0.4629630E-02
    1      -20.894271
    2      -20.407323
    3      -10.604271
    4       -9.523750
    5       -8.801746
    6       -8.240495
    7       -8.232155
    8       -7.806155
    9        2.245882
   10        2.913940
   11        3.058373
   12        3.477306
 
  0.5000000E+00  0.2777778E-01  0.0000000E+00  0.2314815E-02
    1      -20.660533
    2      -20.660533
    3      -10.060280
    4      -10.060280
    5       -8.531280
    6       -8.531280
    7       -8.024396
    8       -8.024396
    9        2.566328
   10        2.566328
   11        3.374333
   12        3.374333
 
  0.0000000E+00  0.5555556E-01  0.0000000E+00  0.2314815E-02
    1      -22.095354
    2      -16.780791
    3      -15.862144
    4      -10.214569
    5       -9.591652
    6       -6.133195
    7       -5.879049
    8       -4.919796
    9       -1.135214
   10        0.608310
   11        1.408619
   12        1.798752
 
  0.4166667E-01  0.5555556E-01  0.0000000E+00  0.4629630E-02
    1      -22.085032
    2      -16.963417
    3      -15.664636
    4      -10.202300
    5       -9.581220
    6       -6.167199
    7       -5.906735
    8       -4.989152
    9       -1.051092
   10        0.622313
   11        1.422771
   12        1.813085
 
  0.8333333E-01  0.5555556E-01  0.0000000E+00  0.4629630E-02
    1      -22.054072
    2      -17.317657
    3      -15.265846
    4      -10.165511
    5       -9.549966
    6       -6.267609
    7       -5.988988
    8       -5.180458
    9       -0.815668
   10        0.664321
   11        1.465223
   12        1.856084
 
  0.1250000E+00  0.5555556E-01  0.0000000E+00  0.4629630E-02
    1      -22.002494
    2      -17.703594
    3      -14.805993
    4      -10.104260
    5       -9.498022
    6       -6.431005
    7       -6.122308
    8       -5.457288
    9       -0.465898
   10        0.734334
   11        1.535964
   12        1.927749
 
  0.1666667E+00  0.5555556E-01  0.0000000E+00  0.4629630E-02
    1      -21.930334
    2      -18.088637
    3      -14.318183
    4      -10.018643
    5       -9.425613
    6       -6.654430
    7       -6.299016
    8       -5.784822
    9       -0.037496
   10        0.832347
   11        1.634973
   12        2.028081
 
  0.2083333E+00  0.5555556E-01  0.0000000E+00  0.4629630E-02
    1      -21.837642
    2      -18.463318
    3      -13.812621
    4       -9.908802
    5       -9.333058
    6       -6.935767
    7       -6.508052
    8       -6.138038
    9        0.443262
   10        0.958348
   11        1.762221
   12        2.157079
 
  0.2500000E+00  0.5555556E-01  0.0000000E+00  0.4629630E-02
    1      -21.724480
    2      -18.823865
    3      -13.294063
    4       -9.774924
    5       -9.220790
    6       -7.271986
    7       -6.737980
    8       -6.500715
    9        0.958524
   10        1.112316
   11        1.917662
   12        2.314741
 
  0.2916667E+00  0.5555556E-01  0.0000000E+00  0.4629630E-02
    1      -21.590934
    2      -19.168385
    3      -12.765660
    4       -9.617253
    5       -9.089357
    6       -7.657736
    7       -6.979530
    8       -6.862517
    9        1.294220
   10        1.495924
   11        2.101232
   12        2.501063
 
  0.3333333E+00  0.5555556E-01  0.0000000E+00  0.4629630E-02
    1      -21.437098
    2      -19.495759
    3      -12.230098
    4       -9.436097
    5       -8.939449
    6       -8.085823
    7       -7.225956
    8       -7.216739
    9        1.504017
   10        2.046253
   11        2.312831
   12        2.716038
 
  0.3750000E+00  0.5555556E-01  0.0000000E+00  0.4629630E-02
    1      -21.263090
    2      -19.805244
    3      -11.690048
    4       -9.231839
    5       -8.771913
    6       -8.548485
    7       -7.558890
    8       -7.472274
    9        1.741650
   10        2.552294
   11        2.601741
   12        2.959657
 
  0.4166667E+00  0.5555556E-01  0.0000000E+00  0.4629630E-02
    1      -21.069047
    2      -20.096299
    3      -11.148388
    4       -9.038316
    5       -9.004960
    6       -8.587783
    7       -7.885855
    8       -7.714583
    9        2.007043
   10        2.819288
   11        3.153296
   12        3.231900
 
  0.4583333E+00  0.5555556E-01  0.0000000E+00  0.4629630E-02
    1      -20.855133
    2      -20.368509
    3      -10.608358
    4       -9.548653
    5       -8.756056
    6       -8.388312
    7       -8.195401
    8       -7.949707
    9        2.300091
   10        2.968459
   11        3.112923
   12        3.532735
 
  0.5000000E+00  0.5555556E-01  0.0000000E+00  0.2314815E-02
    1      -20.621544
    2      -20.621544
    3      -10.073675
    4      -10.073675
    5       -8.485883
    6       -8.485883
    7       -8.175013
    8       -8.175013
    9        2.620644
   10        2.620644
   11        3.428923
   12        3.428923
 
  0.0000000E+00  0.8333333E-01  0.0000000E+00  0.2314815E-02
    1      -22.029103
    2      -16.723718
    3      -15.808814
    4      -10.135839
    5       -9.866178
    6       -6.386789
    7       -6.031908
    8       -4.839459
    9       -1.165837
   10        0.698125
   11        1.499618
   12        1.890916
 
  0.4166667E-01  0.8333333E-01  0.0000000E+00  0.4629630E-02
    1      -22.018788
    2      -16.905748
    3      -15.612216
    4      -10.123593
    5       -9.855590
    6       -6.426595
    7       -6.050522
    8       -4.909718
    9       -1.081476
   10        0.712129
   11        1.513764
   12        1.905250
 
  0.8333333E-01  0.8333333E-01  0.0000000E+00  0.4629630E-02
    1      -21.987850
    2      -17.258906
    3      -15.215463
    4      -10.086872
    5       -9.823857
    6       -6.539491
    7       -6.111009
    8       -5.103036
    9       -0.846029
   10        0.754142
   11        1.556198
   12        1.948250
 
  0.1250000E+00  0.8333333E-01  0.0000000E+00  0.4629630E-02
    1      -21.936310
    2      -17.643782
    3      -14.758311
    4      -10.025735
    5       -9.771082
    6       -6.712736
    7       -6.220586
    8       -5.381850
    9       -0.497596
   10        0.824166
   11        1.626909
   12        2.019918
 
  0.1666667E+00  0.8333333E-01  0.0000000E+00  0.4629630E-02
    1      -21.864203
    2      -18.027876
    3      -14.273843
    4       -9.940279
    5       -9.697432
    6       -6.935704
    7       -6.381077
    8       -5.710776
    9       -0.072459
   10        0.922198
   11        1.725878
   12        2.120254
 
  0.2083333E+00  0.8333333E-01  0.0000000E+00  0.4629630E-02
    1      -21.771580
    2      -18.401731
    3      -13.772364
    4       -9.830645
    5       -9.603147
    6       -7.201933
    7       -6.587554
    8       -6.064745
    9        0.403065
   10        1.048226
   11        1.853073
   12        2.249258
 
  0.2500000E+00  0.8333333E-01  0.0000000E+00  0.4629630E-02
    1      -21.658509
    2      -18.761564
    3      -13.258790
    4       -9.697021
    5       -9.488543
    6       -7.508612
    7       -6.829776
    8       -6.427672
    9        0.911289
   10        1.202230
   11        2.008453
   12        2.406930
 
  0.2916667E+00  0.8333333E-01  0.0000000E+00  0.4629630E-02
    1      -21.525071
    2      -19.105467
    3      -12.736489
    4       -9.539650
    5       -9.354015
    6       -7.855202
    7       -7.094566
    8       -6.789380
    9        1.384175
   10        1.440081
   11        2.191956
   12        2.593264
 
  0.3333333E+00  0.8333333E-01  0.0000000E+00  0.4629630E-02
    1      -21.371365
    2      -19.432310
    3      -12.208432
    4       -9.358841
    5       -9.200042
    6       -8.241280
    7       -7.368852
    8       -7.143290
    9        1.594019
   10        1.980530
   11        2.403491
   12        2.808255
 
  0.3750000E+00  0.8333333E-01  0.0000000E+00  0.4629630E-02
    1      -21.197510
    2      -19.741337
    3      -11.677659
    4       -9.154976
    5       -9.027196
    6       -8.664567
    7       -7.642284
    8       -7.485002
    9        1.831702
   10        2.525411
   11        2.642912
   12        3.051895
 
  0.4166667E+00  0.8333333E-01  0.0000000E+00  0.4629630E-02
    1      -21.003650
    2      -20.031999
    3      -11.147530
    4       -9.120427
    5       -8.928531
    6       -8.836148
    7       -7.908094
    8       -7.811461
    9        2.097152
   10        2.909933
   11        3.067610
   12        3.324170
 
  0.4583333E+00  0.8333333E-01  0.0000000E+00  0.4629630E-02
    1      -20.789952
    2      -20.303870
    3      -10.621896
    4       -9.602775
    5       -8.680102
    6       -8.627675
    7       -8.162335
    8       -8.120479
    9        2.390272
   10        3.058940
   11        3.203766
   12        3.586176
 
  0.5000000E+00  0.8333333E-01  0.0000000E+00  0.2314815E-02
    1      -20.556613
    2      -20.556613
    3      -10.105240
    4      -10.105240
    5       -8.410435
    6       -8.410435
    7       -8.402697
    8       -8.402697
    9        2.710932
   10        2.710932
   11        3.519835
   12        3.519835
 
  0.0000000E+00  0.1111111E+00  0.0000000E+00  0.2314815E-02
    1      -21.936439
    2      -16.643844
    3      -15.735667
    4      -10.223145
    5      -10.025849
    6       -6.718086
    7       -6.239931
    8       -4.727127
    9       -1.214246
   10        0.823902
   11        1.626964
   12        2.019954
 
  0.4166667E-01  0.1111111E+00  0.0000000E+00  0.4629630E-02
    1      -21.926134
    2      -16.825161
    3      -15.540270
    4      -10.212288
    5      -10.013636
    6       -6.762432
    7       -6.249782
    8       -4.798775
    9       -1.129459
   10        0.837905
   11        1.641101
   12        2.034287
 
  0.8333333E-01  0.1111111E+00  0.0000000E+00  0.4629630E-02
    1      -21.895227
    2      -17.176875
    3      -15.146448
    4      -10.179731
    5       -9.977016
    6       -6.885012
    7       -6.288522
    8       -4.995158
    9       -0.893842
   10        0.879915
   11        1.683506
   12        2.077287
 
  0.1250000E+00  0.1111111E+00  0.0000000E+00  0.4629630E-02
    1      -21.843739
    2      -17.560268
    3      -14.693340
    4      -10.125516
    5       -9.916046
    6       -7.066563
    7       -6.371525
    8       -5.276939
    9       -0.547267
   10        0.949936
   11        1.754169
   12        2.148955
 
  0.1666667E+00  0.1111111E+00  0.0000000E+00  0.4629630E-02
    1      -21.771708
    2      -17.943018
    3      -14.213979
    4      -10.049707
    5       -9.830824
    6       -7.291875
    7       -6.507433
    8       -5.607903
    9       -0.126845
   10        1.047971
   11        1.853069
   12        2.249293
 
  0.2083333E+00  0.1111111E+00  0.0000000E+00  0.4629630E-02
    1      -21.679185
    2      -18.315695
    3      -13.718841
    4       -9.952385
    5       -9.721492
    6       -7.551285
    7       -6.696808
    8       -5.962939
    9        0.341084
   10        1.174012
   11        1.980177
   12        2.378303
 
  0.2500000E+00  0.1111111E+00  0.0000000E+00  0.4629630E-02
    1      -21.566238
    2      -18.674508
    3      -13.213133
    4       -9.833638
    5       -9.588239
    6       -7.839412
    7       -6.933888
    8       -6.326188
    9        0.839108
   10        1.328039
   11        2.135450
   12        2.535982
 
  0.2916667E+00  0.1111111E+00  0.0000000E+00  0.4629630E-02
    1      -21.432952
    2      -19.017532
    3      -12.700632
    4       -9.693541
    5       -9.431309
    6       -8.154343
    7       -7.208196
    8       -6.687716
    9        1.355442
   10        1.510016
   11        2.318832
   12        2.722328
 
  0.3333333E+00  0.1111111E+00  0.0000000E+00  0.4629630E-02
    1      -21.279430
    2      -19.343619
    3      -12.184861
    4       -9.532135
    5       -9.251009
    6       -8.496959
    7       -7.506078
    8       -7.041133
    9        1.719897
   10        1.881565
   11        2.530243
   12        2.937335
 
  0.3750000E+00  0.1111111E+00  0.0000000E+00  0.4629630E-02
    1      -21.105795
    2      -19.651995
    3      -11.669593
    4       -9.349396
    5       -9.047720
    6       -8.869675
    7       -7.812738
    8       -7.382172
    9        1.957619
   10        2.410806
   11        2.769562
   12        3.180995
 
  0.4166667E+00  0.1111111E+00  0.0000000E+00  0.4629630E-02
    1      -20.912192
    2      -19.942096
    3      -11.159137
    4       -9.274329
    5       -9.145212
    6       -8.821916
    7       -8.114878
    8       -7.707869
    9        2.223108
   10        2.937401
   11        3.036577
   12        3.453297
 
  0.4583333E+00  0.1111111E+00  0.0000000E+00  0.4629630E-02
    1      -20.698798
    2      -20.213486
    3      -10.658514
    4       -9.710185
    5       -8.919394
    6       -8.574186
    7       -8.402979
    8       -8.016095
    9        2.516271
   10        3.185101
   11        3.330712
   12        3.454401
 
  0.5000000E+00  0.1111111E+00  0.0000000E+00  0.2314815E-02
    1      -20.465815
    2      -20.465815
    3      -10.173475
    4      -10.173475
    5       -8.671835
    6       -8.671835
    7       -8.305268
    8       -8.305268
    9        2.836989
   10        2.836989
   11        3.646724
   12        3.646724
 
  0.0000000E+00  0.1388889E+00  0.0000000E+00  0.2314815E-02
    1      -21.817450
    2      -16.541200
    3      -15.644618
    4      -10.642005
    5       -9.884842
    6       -7.110040
    7       -6.497747
    8       -4.582942
    9       -1.285733
   10        0.985659
   11        1.790602
   12        2.185870
 
  0.4166667E-01  0.1388889E+00  0.0000000E+00  0.4629630E-02
    1      -21.807159
    2      -16.721833
    3      -15.450634
    4      -10.630697
    5       -9.872674
    6       -7.158183
    7       -6.498908
    8       -4.656632
    9       -1.200198
   10        0.999654
   11        1.804723
   12        2.200202
 
  0.8333333E-01  0.1388889E+00  0.0000000E+00  0.4629630E-02
    1      -21.776292
    2      -17.071820
    3      -15.060777
    4      -10.596752
    5       -9.836189
    6       -7.289092
    7       -6.515234
    8       -4.857439
    9       -0.964036
   10        1.041646
   11        1.847083
   12        2.243198
 
  0.1250000E+00  0.1388889E+00  0.0000000E+00  0.4629630E-02
    1      -21.724873
    2      -17.453307
    3      -14.613452
    4      -10.540096
    5       -9.775446
    6       -7.478503
    7       -6.568767
    8       -5.143389
    9       -0.619748
   10        1.111643
   11        1.917669
   12        2.314863
 
  0.1666667E+00  0.1388889E+00  0.0000000E+00  0.4629630E-02
    1      -21.652940
    2      -17.834296
    3      -14.141612
    4      -10.460588
    5       -9.690543
    6       -7.707905
    7       -6.673821
    8       -5.477125
    9       -0.205562
   10        1.209653
   11        2.016458
   12        2.415198
 
  0.2083333E+00  0.1388889E+00  0.0000000E+00  0.4629630E-02
    1      -21.560546
    2      -18.205419
    3      -13.656043
    4      -10.357990
    5       -9.581623
    6       -7.965564
    7       -6.835611
    8       -5.833545
    9        0.252241
   10        1.335677
   11        2.143420
   12        2.544207
 
  0.2500000E+00  0.1388889E+00  0.0000000E+00  0.4629630E-02
    1      -21.447761
    2      -18.562884
    3      -13.162501
    4      -10.231919
    5       -9.448876
    6       -8.244276
    7       -7.052523
    8       -6.197144
    9        0.736701
   10        1.489698
   11        2.298510
   12        2.701890
 
  0.2916667E+00  0.1388889E+00  0.0000000E+00  0.4629630E-02
    1      -21.314674
    2      -18.904747
    3      -12.665553
    4      -10.081778
    5       -9.292548
    6       -8.540087
    7       -7.317856
    8       -6.558342
    9        1.236542
   10        1.671680
   11        2.481671
   12        2.888244
 
  0.3333333E+00  0.1388889E+00  0.0000000E+00  0.4629630E-02
    1      -21.161391
    2      -19.229835
    3      -12.169801
    4       -9.906680
    5       -9.112944
    6       -8.851823
    7       -7.621080
    8       -6.911014
    9        1.743755
   10        1.881573
   11        2.692826
   12        3.103263
 
  0.3750000E+00  0.1388889E+00  0.0000000E+00  0.4629630E-02
    1      -20.988040
    2      -19.537352
    3      -11.680420
    4       -9.705387
    5       -9.180937
    6       -8.910446
    7       -7.948836
    8       -7.251077
    9        2.119308
   10        2.252234
   11        2.931878
   12        3.346939
 
  0.4166667E+00  0.1388889E+00  0.0000000E+00  0.4629630E-02
    1      -20.794775
    2      -19.826717
    3      -11.203352
    4       -9.531095
    5       -9.476375
    6       -8.685524
    7       -8.286038
    8       -7.575689
    9        2.384804
   10        2.757016
   11        3.198693
   12        3.619263
 
  0.4583333E+00  0.1388889E+00  0.0000000E+00  0.4629630E-02
    1      -20.581778
    2      -20.097474
    3      -10.745077
    4       -9.906910
    5       -9.218273
    6       -8.617609
    7       -8.438760
    8       -7.882800
    9        2.677965
   10        3.253823
   11        3.346776
   12        3.493056
 
  0.5000000E+00  0.1388889E+00  0.0000000E+00  0.2314815E-02
    1      -20.349260
    2      -20.349260
    3      -10.311636
    4      -10.311636
    5       -8.930990
    6       -8.930990
    7       -8.170881
    8       -8.170881
    9        2.998672
   10        2.998672
   11        3.737295
   12        3.737304
 
  0.0000000E+00  0.1666667E+00  0.0000000E+00  0.2314815E-02
    1      -21.672259
    2      -16.415825
    3      -15.538888
    4      -11.102088
    5       -9.713137
    6       -7.546715
    7       -6.799195
    8       -4.407091
    9       -1.386591
   10        1.183393
   11        1.990452
   12        2.388667
 
  0.4166667E-01  0.1666667E+00  0.0000000E+00  0.4629630E-02
    1      -21.661985
    2      -16.596052
    3      -15.346425
    4      -11.090012
    5       -9.701028
    6       -7.598291
    7       -6.791639
    8       -4.483765
    9       -1.299719
   10        1.197377
   11        2.004549
   12        2.402997
 
  0.8333333E-01  0.1666667E+00  0.0000000E+00  0.4629630E-02
    1      -21.631169
    2      -16.944148
    3      -14.961882
    4      -11.053683
    5       -9.664722
    6       -7.736922
    7       -6.784924
    8       -4.690865
    9       -1.062192
   10        1.239333
   11        2.046836
   12        2.445987
 
  0.1250000E+00  0.1666667E+00  0.0000000E+00  0.4629630E-02
    1      -21.579835
    2      -17.323299
    3      -14.522891
    4      -10.992794
    5       -9.604276
    6       -7.934144
    7       -6.806804
    8       -4.982514
    9       -0.720379
   10        1.309278
   11        2.117295
   12        2.517643
 
  0.1666667E+00  0.1666667E+00  0.0000000E+00  0.4629630E-02
    1      -21.508022
    2      -17.702067
    3      -14.062323
    4      -10.906774
    5       -9.519792
    6       -8.168805
    7       -6.876513
    8       -5.319866
    9       -0.313927
   10        1.407226
   11        2.215901
   12        2.617967
 
  0.2083333E+00  0.1666667E+00  0.0000000E+00  0.4629630E-02
    1      -21.415786
    2      -18.071215
    3      -13.591582
    4      -10.794706
    5       -9.411414
    6       -8.427756
    7       -7.003332
    8       -5.677960
    9        0.131146
   10        1.533189
   11        2.342610
   12        2.746967
 
  0.2500000E+00  0.1666667E+00  0.0000000E+00  0.4629630E-02
    1      -21.303203
    2      -18.426964
    3      -13.117515
    4      -10.655199
    5       -9.279335
    6       -8.702761
    7       -7.189258
    8       -6.041851
    9        0.598617
   10        1.687159
   11        2.497365
   12        2.904644
 
  0.2916667E+00  0.1666667E+00  0.0000000E+00  0.4629630E-02
    1      -21.170361
    2      -18.767350
    3      -12.646241
    4      -10.486258
    5       -9.123800
    6       -8.988673
    7       -7.430905
    8       -6.402456
    9        1.077974
   10        1.869104
   11        2.680085
   12        3.090998
 
  0.3333333E+00  0.1666667E+00  0.0000000E+00  0.4629630E-02
    1      -21.017375
    2      -19.091170
    3      -12.184322
    4      -10.285231
    5       -9.282658
    6       -8.945117
    7       -7.720853
    8       -6.754016
    9        1.561923
   10        2.078969
   11        2.890654
   12        3.306024
 
  0.3750000E+00  0.1666667E+00  0.0000000E+00  0.4629630E-02
    1      -20.844380
    2      -19.397602
    3      -11.738920
    4      -10.049130
    5       -9.583985
    6       -8.743669
    7       -8.048700
    8       -7.092688
    9        2.045039
   10        2.316680
   11        3.128884
   12        3.549712
 
  0.4166667E+00  0.1666667E+00  0.0000000E+00  0.4629630E-02
    1      -20.651538
    2      -19.686035
    3      -11.316946
    4       -9.894106
    5       -9.775755
    6       -8.519922
    7       -8.401810
    8       -7.415791
    9        2.523016
   10        2.582144
   11        3.394344
   12        3.822051
 
  0.4583333E+00  0.1666667E+00  0.0000000E+00  0.4629630E-02
    1      -20.439037
    2      -19.955997
    3      -10.923075
    4      -10.216772
    5       -9.465869
    6       -8.765835
    7       -8.274452
    8       -7.721375
    9        2.875253
   10        2.992168
   11        3.543870
   12        3.682726
 
  0.5000000E+00  0.1666667E+00  0.0000000E+00  0.2314815E-02
    1      -20.207103
    2      -20.207103
    3      -10.557694
    4      -10.557694
    5       -9.125426
    6       -9.125426
    7       -8.007972
    8       -8.007972
    9        3.195880
   10        3.195880
   11        3.448467
   12        3.448467
 