<?xml version="1.0" encoding="ISO-8859-1"?>
<modeling>
 <generator>
  <i name="program" type="string">vasp </i>
  <i name="version" type="string">5.3.5  </i>
  <i name="subversion" type="string">31Mar14 (build Mar 02 2015 18:14:16) complex                          parallel </i>
  <i name="platform" type="string">LinuxIFC </i>
  <i name="date" type="string">2018 08 09 </i>
  <i name="time" type="string">20:07:53 </i>
 </generator>
 <incar>
  <i type="string" name="SYSTEM">  gr</i>
  <i type="string" name="PREC">accurate : accuracy</i>
  <i type="string" name="ALGO"> FAST.</i>
  <i type="int" name="NELM">   100</i>
  <i type="int" name="NELMDL">    -3</i>
  <i type="int" name="NELMIN">     5</i>
  <i type="int" name="IBRION">     1</i>
  <i name="EDIFF">      0.00000000</i>
  <i name="EDIFFG">     -0.00000100</i>
  <i type="int" name="NSW">   400</i>
  <i type="int" name="ISIF">     2</i>
  <i name="ENCUT">   2000.00000000</i>
  <i type="int" name="ISMEAR">     0</i>
  <i name="SIGMA">      0.05000000</i>
  <i type="int" name="NWRITE">     2</i>
  <i type="logical" name="LWAVE"> F  </i>
  <i type="logical" name="LCHARG"> F  </i>
  <i type="int" name="NELM">   100</i>
 </incar>
 <kpoints>
  <generation param="Gamma">
   <v type="int" name="divisions">      24       36        1 </v>
   <v name="usershift">      0.00000000       0.00000000       0.00000000 </v>
   <v name="genvec1">      0.04166667       0.00000000       0.00000000 </v>
   <v name="genvec2">      0.00000000       0.02777778       0.00000000 </v>
   <v name="genvec3">      0.00000000       0.00000000       1.00000000 </v>
   <v name="shift">      0.00000000       0.00000000       0.00000000 </v>
  </generation>
  <varray name="kpointlist" >
   <v>       0.00000000       0.00000000       0.00000000 </v>
   <v>       0.04166667       0.00000000       0.00000000 </v>
   <v>       0.08333333       0.00000000       0.00000000 </v>
   <v>       0.12500000       0.00000000       0.00000000 </v>
   <v>       0.16666667       0.00000000       0.00000000 </v>
   <v>       0.20833333       0.00000000       0.00000000 </v>
   <v>       0.25000000       0.00000000       0.00000000 </v>
   <v>       0.29166667       0.00000000       0.00000000 </v>
   <v>       0.33333333       0.00000000       0.00000000 </v>
   <v>       0.37500000       0.00000000       0.00000000 </v>
   <v>       0.41666667       0.00000000       0.00000000 </v>
   <v>       0.45833333       0.00000000       0.00000000 </v>
   <v>       0.50000000       0.00000000       0.00000000 </v>
   <v>       0.00000000       0.02777778       0.00000000 </v>
   <v>       0.04166667       0.02777778       0.00000000 </v>
   <v>       0.08333333       0.02777778       0.00000000 </v>
   <v>       0.12500000       0.02777778       0.00000000 </v>
   <v>       0.16666667       0.02777778       0.00000000 </v>
   <v>       0.20833333       0.02777778       0.00000000 </v>
   <v>       0.25000000       0.02777778       0.00000000 </v>
   <v>       0.29166667       0.02777778       0.00000000 </v>
   <v>       0.33333333       0.02777778       0.00000000 </v>
   <v>       0.37500000       0.02777778       0.00000000 </v>
   <v>       0.41666667       0.02777778       0.00000000 </v>
   <v>       0.45833333       0.02777778       0.00000000 </v>
   <v>       0.50000000       0.02777778       0.00000000 </v>
   <v>       0.00000000       0.05555556       0.00000000 </v>
   <v>       0.04166667       0.05555556       0.00000000 </v>
   <v>       0.08333333       0.05555556       0.00000000 </v>
   <v>       0.12500000       0.05555556       0.00000000 </v>
   <v>       0.16666667       0.05555556       0.00000000 </v>
   <v>       0.20833333       0.05555556       0.00000000 </v>
   <v>       0.25000000       0.05555556       0.00000000 </v>
   <v>       0.29166667       0.05555556       0.00000000 </v>
   <v>       0.33333333       0.05555556       0.00000000 </v>
   <v>       0.37500000       0.05555556       0.00000000 </v>
   <v>       0.41666667       0.05555556       0.00000000 </v>
   <v>       0.45833333       0.05555556       0.00000000 </v>
   <v>       0.50000000       0.05555556       0.00000000 </v>
   <v>       0.00000000       0.08333333       0.00000000 </v>
   <v>       0.04166667       0.08333333       0.00000000 </v>
   <v>       0.08333333       0.08333333       0.00000000 </v>
   <v>       0.12500000       0.08333333       0.00000000 </v>
   <v>       0.16666667       0.08333333       0.00000000 </v>
   <v>       0.20833333       0.08333333       0.00000000 </v>
   <v>       0.25000000       0.08333333       0.00000000 </v>
   <v>       0.29166667       0.08333333       0.00000000 </v>
   <v>       0.33333333       0.08333333       0.00000000 </v>
   <v>       0.37500000       0.08333333       0.00000000 </v>
   <v>       0.41666667       0.08333333       0.00000000 </v>
   <v>       0.45833333       0.08333333       0.00000000 </v>
   <v>       0.50000000       0.08333333       0.00000000 </v>
   <v>       0.00000000       0.11111111       0.00000000 </v>
   <v>       0.04166667       0.11111111       0.00000000 </v>
   <v>       0.08333333       0.11111111       0.00000000 </v>
   <v>       0.12500000       0.11111111       0.00000000 </v>
   <v>       0.16666667       0.11111111       0.00000000 </v>
   <v>       0.20833333       0.11111111       0.00000000 </v>
   <v>       0.25000000       0.11111111       0.00000000 </v>
   <v>       0.29166667       0.11111111       0.00000000 </v>
   <v>       0.33333333       0.11111111       0.00000000 </v>
   <v>       0.37500000       0.11111111       0.00000000 </v>
   <v>       0.41666667       0.11111111       0.00000000 </v>
   <v>       0.45833333       0.11111111       0.00000000 </v>
   <v>       0.50000000       0.11111111       0.00000000 </v>
   <v>       0.00000000       0.13888889       0.00000000 </v>
   <v>       0.04166667       0.13888889       0.00000000 </v>
   <v>       0.08333333       0.13888889       0.00000000 </v>
   <v>       0.12500000       0.13888889       0.00000000 </v>
   <v>       0.16666667       0.13888889       0.00000000 </v>
   <v>       0.20833333       0.13888889       0.00000000 </v>
   <v>       0.25000000       0.13888889       0.00000000 </v>
   <v>       0.29166667       0.13888889       0.00000000 </v>
   <v>       0.33333333       0.13888889       0.00000000 </v>
   <v>       0.37500000       0.13888889       0.00000000 </v>
   <v>       0.41666667       0.13888889       0.00000000 </v>
   <v>       0.45833333       0.13888889       0.00000000 </v>
   <v>       0.50000000       0.13888889       0.00000000 </v>
   <v>       0.00000000       0.16666667       0.00000000 </v>
   <v>       0.04166667       0.16666667       0.00000000 </v>
   <v>       0.08333333       0.16666667       0.00000000 </v>
   <v>       0.12500000       0.16666667       0.00000000 </v>
   <v>       0.16666667       0.16666667       0.00000000 </v>
   <v>       0.20833333       0.16666667       0.00000000 </v>
   <v>       0.25000000       0.16666667       0.00000000 </v>
   <v>       0.29166667       0.16666667       0.00000000 </v>
   <v>       0.33333333       0.16666667       0.00000000 </v>
   <v>       0.37500000       0.16666667       0.00000000 </v>
   <v>       0.41666667       0.16666667       0.00000000 </v>
   <v>       0.45833333       0.16666667       0.00000000 </v>
   <v>       0.50000000       0.16666667       0.00000000 </v>
   <v>       0.00000000       0.19444444       0.00000000 </v>
   <v>       0.04166667       0.19444444       0.00000000 </v>
   <v>       0.08333333       0.19444444       0.00000000 </v>
   <v>       0.12500000       0.19444444       0.00000000 </v>
   <v>       0.16666667       0.19444444       0.00000000 </v>
   <v>       0.20833333       0.19444444       0.00000000 </v>
   <v>       0.25000000       0.19444444       0.00000000 </v>
   <v>       0.29166667       0.19444444       0.00000000 </v>
   <v>       0.33333333       0.19444444       0.00000000 </v>
   <v>       0.37500000       0.19444444       0.00000000 </v>
   <v>       0.41666667       0.19444444       0.00000000 </v>
   <v>       0.45833333       0.19444444       0.00000000 </v>
   <v>       0.50000000       0.19444444       0.00000000 </v>
   <v>       0.00000000       0.22222222       0.00000000 </v>
   <v>       0.04166667       0.22222222       0.00000000 </v>
   <v>       0.08333333       0.22222222       0.00000000 </v>
   <v>       0.12500000       0.22222222       0.00000000 </v>
   <v>       0.16666667       0.22222222       0.00000000 </v>
   <v>       0.20833333       0.22222222       0.00000000 </v>
   <v>       0.25000000       0.22222222       0.00000000 </v>
   <v>       0.29166667       0.22222222       0.00000000 </v>
   <v>       0.33333333       0.22222222       0.00000000 </v>
   <v>       0.37500000       0.22222222       0.00000000 </v>
   <v>       0.41666667       0.22222222       0.00000000 </v>
   <v>       0.45833333       0.22222222       0.00000000 </v>
   <v>       0.50000000       0.22222222       0.00000000 </v>
   <v>       0.00000000       0.25000000       0.00000000 </v>
   <v>       0.04166667       0.25000000       0.00000000 </v>
   <v>       0.08333333       0.25000000       0.00000000 </v>
   <v>       0.12500000       0.25000000       0.00000000 </v>
   <v>       0.16666667       0.25000000       0.00000000 </v>
   <v>       0.20833333       0.25000000       0.00000000 </v>
   <v>       0.25000000       0.25000000       0.00000000 </v>
   <v>       0.29166667       0.25000000       0.00000000 </v>
   <v>       0.33333333       0.25000000       0.00000000 </v>
   <v>       0.37500000       0.25000000       0.00000000 </v>
   <v>       0.41666667       0.25000000       0.00000000 </v>
   <v>       0.45833333       0.25000000       0.00000000 </v>
   <v>       0.50000000       0.25000000       0.00000000 </v>
   <v>       0.00000000       0.27777778       0.00000000 </v>
   <v>       0.04166667       0.27777778       0.00000000 </v>
   <v>       0.08333333       0.27777778       0.00000000 </v>
   <v>       0.12500000       0.27777778       0.00000000 </v>
   <v>       0.16666667       0.27777778       0.00000000 </v>
   <v>       0.20833333       0.27777778       0.00000000 </v>
   <v>       0.25000000       0.27777778       0.00000000 </v>
   <v>       0.29166667       0.27777778       0.00000000 </v>
   <v>       0.33333333       0.27777778       0.00000000 </v>
   <v>       0.37500000       0.27777778       0.00000000 </v>
   <v>       0.41666667       0.27777778       0.00000000 </v>
   <v>       0.45833333       0.27777778       0.00000000 </v>
   <v>       0.50000000       0.27777778       0.00000000 </v>
   <v>       0.00000000       0.30555556       0.00000000 </v>
   <v>       0.04166667       0.30555556       0.00000000 </v>
   <v>       0.08333333       0.30555556       0.00000000 </v>
   <v>       0.12500000       0.30555556       0.00000000 </v>
   <v>       0.16666667       0.30555556       0.00000000 </v>
   <v>       0.20833333       0.30555556       0.00000000 </v>
   <v>       0.25000000       0.30555556       0.00000000 </v>
   <v>       0.29166667       0.30555556       0.00000000 </v>
   <v>       0.33333333       0.30555556       0.00000000 </v>
   <v>       0.37500000       0.30555556       0.00000000 </v>
   <v>       0.41666667       0.30555556       0.00000000 </v>
   <v>       0.45833333       0.30555556       0.00000000 </v>
   <v>       0.50000000       0.30555556       0.00000000 </v>
   <v>       0.00000000       0.33333333       0.00000000 </v>
   <v>       0.04166667       0.33333333       0.00000000 </v>
   <v>       0.08333333       0.33333333       0.00000000 </v>
   <v>       0.12500000       0.33333333       0.00000000 </v>
   <v>       0.16666667       0.33333333       0.00000000 </v>
   <v>       0.20833333       0.33333333       0.00000000 </v>
   <v>       0.25000000       0.33333333       0.00000000 </v>
   <v>       0.29166667       0.33333333       0.00000000 </v>
   <v>       0.33333333       0.33333333       0.00000000 </v>
   <v>       0.37500000       0.33333333       0.00000000 </v>
   <v>       0.41666667       0.33333333       0.00000000 </v>
   <v>       0.45833333       0.33333333       0.00000000 </v>
   <v>       0.50000000       0.33333333       0.00000000 </v>
   <v>       0.00000000       0.36111111       0.00000000 </v>
   <v>       0.04166667       0.36111111       0.00000000 </v>
   <v>       0.08333333       0.36111111       0.00000000 </v>
   <v>       0.12500000       0.36111111       0.00000000 </v>
   <v>       0.16666667       0.36111111       0.00000000 </v>
   <v>       0.20833333       0.36111111       0.00000000 </v>
   <v>       0.25000000       0.36111111       0.00000000 </v>
   <v>       0.29166667       0.36111111       0.00000000 </v>
   <v>       0.33333333       0.36111111       0.00000000 </v>
   <v>       0.37500000       0.36111111       0.00000000 </v>
   <v>       0.41666667       0.36111111       0.00000000 </v>
   <v>       0.45833333       0.36111111       0.00000000 </v>
   <v>       0.50000000       0.36111111       0.00000000 </v>
   <v>       0.00000000       0.38888889       0.00000000 </v>
   <v>       0.04166667       0.38888889       0.00000000 </v>
   <v>       0.08333333       0.38888889       0.00000000 </v>
   <v>       0.12500000       0.38888889       0.00000000 </v>
   <v>       0.16666667       0.38888889       0.00000000 </v>
   <v>       0.20833333       0.38888889       0.00000000 </v>
   <v>       0.25000000       0.38888889       0.00000000 </v>
   <v>       0.29166667       0.38888889       0.00000000 </v>
   <v>       0.33333333       0.38888889       0.00000000 </v>
   <v>       0.37500000       0.38888889       0.00000000 </v>
   <v>       0.41666667       0.38888889       0.00000000 </v>
   <v>       0.45833333       0.38888889       0.00000000 </v>
   <v>       0.50000000       0.38888889       0.00000000 </v>
   <v>       0.00000000       0.41666667       0.00000000 </v>
   <v>       0.04166667       0.41666667       0.00000000 </v>
   <v>       0.08333333       0.41666667       0.00000000 </v>
   <v>       0.12500000       0.41666667       0.00000000 </v>
   <v>       0.16666667       0.41666667       0.00000000 </v>
   <v>       0.20833333       0.41666667       0.00000000 </v>
   <v>       0.25000000       0.41666667       0.00000000 </v>
   <v>       0.29166667       0.41666667       0.00000000 </v>
   <v>       0.33333333       0.41666667       0.00000000 </v>
   <v>       0.37500000       0.41666667       0.00000000 </v>
   <v>       0.41666667       0.41666667       0.00000000 </v>
   <v>       0.45833333       0.41666667       0.00000000 </v>
   <v>       0.50000000       0.41666667       0.00000000 </v>
   <v>       0.00000000       0.44444444       0.00000000 </v>
   <v>       0.04166667       0.44444444       0.00000000 </v>
   <v>       0.08333333       0.44444444       0.00000000 </v>
   <v>       0.12500000       0.44444444       0.00000000 </v>
   <v>       0.16666667       0.44444444       0.00000000 </v>
   <v>       0.20833333       0.44444444       0.00000000 </v>
   <v>       0.25000000       0.44444444       0.00000000 </v>
   <v>       0.29166667       0.44444444       0.00000000 </v>
   <v>       0.33333333       0.44444444       0.00000000 </v>
   <v>       0.37500000       0.44444444       0.00000000 </v>
   <v>       0.41666667       0.44444444       0.00000000 </v>
   <v>       0.45833333       0.44444444       0.00000000 </v>
   <v>       0.50000000       0.44444444       0.00000000 </v>
   <v>       0.00000000       0.47222222       0.00000000 </v>
   <v>       0.04166667       0.47222222       0.00000000 </v>
   <v>       0.08333333       0.47222222       0.00000000 </v>
   <v>       0.12500000       0.47222222       0.00000000 </v>
   <v>       0.16666667       0.47222222       0.00000000 </v>
   <v>       0.20833333       0.47222222       0.00000000 </v>
   <v>       0.25000000       0.47222222       0.00000000 </v>
   <v>       0.29166667       0.47222222       0.00000000 </v>
   <v>       0.33333333       0.47222222       0.00000000 </v>
   <v>       0.37500000       0.47222222       0.00000000 </v>
   <v>       0.41666667       0.47222222       0.00000000 </v>
   <v>       0.45833333       0.47222222       0.00000000 </v>
   <v>       0.50000000       0.47222222       0.00000000 </v>
   <v>       0.00000000       0.50000000       0.00000000 </v>
   <v>       0.04166667       0.50000000       0.00000000 </v>
   <v>       0.08333333       0.50000000       0.00000000 </v>
   <v>       0.12500000       0.50000000       0.00000000 </v>
   <v>       0.16666667       0.50000000       0.00000000 </v>
   <v>       0.20833333       0.50000000       0.00000000 </v>
   <v>       0.25000000       0.50000000       0.00000000 </v>
   <v>       0.29166667       0.50000000       0.00000000 </v>
   <v>       0.33333333       0.50000000       0.00000000 </v>
   <v>       0.37500000       0.50000000       0.00000000 </v>
   <v>       0.41666667       0.50000000       0.00000000 </v>
   <v>       0.45833333       0.50000000       0.00000000 </v>
   <v>       0.50000000       0.50000000       0.00000000 </v>
  </varray>
  <varray name="weights" >
   <v>       0.00115741 </v>
   <v>       0.00231481 </v>
   <v>       0.00231481 </v>
   <v>       0.00231481 </v>
   <v>       0.00231481 </v>
   <v>       0.00231481 </v>
   <v>       0.00231481 </v>
   <v>       0.00231481 </v>
   <v>       0.00231481 </v>
   <v>       0.00231481 </v>
   <v>       0.00231481 </v>
   <v>       0.00231481 </v>
   <v>       0.00115741 </v>
   <v>       0.00231481 </v>
   <v>       0.00462963 </v>
   <v>       0.00462963 </v>
   <v>       0.00462963 </v>
   <v>       0.00462963 </v>
   <v>       0.00462963 </v>
   <v>       0.00462963 </v>
   <v>       0.00462963 </v>
   <v>       0.00462963 </v>
   <v>       0.00462963 </v>
   <v>       0.00462963 </v>
   <v>       0.00462963 </v>
   <v>       0.00231481 </v>
   <v>       0.00231481 </v>
   <v>       0.00462963 </v>
   <v>       0.00462963 </v>
   <v>       0.00462963 </v>
   <v>       0.00462963 </v>
   <v>       0.00462963 </v>
   <v>       0.00462963 </v>
   <v>       0.00462963 </v>
   <v>       0.00462963 </v>
   <v>       0.00462963 </v>
   <v>       0.00462963 </v>
   <v>       0.00462963 </v>
   <v>       0.00231481 </v>
   <v>       0.00231481 </v>
   <v>       0.00462963 </v>
   <v>       0.00462963 </v>
   <v>       0.00462963 </v>
   <v>       0.00462963 </v>
   <v>       0.00462963 </v>
   <v>       0.00462963 </v>
   <v>       0.00462963 </v>
   <v>       0.00462963 </v>
   <v>       0.00462963 </v>
   <v>       0.00462963 </v>
   <v>       0.00462963 </v>
   <v>       0.00231481 </v>
   <v>       0.00231481 </v>
   <v>       0.00462963 </v>
   <v>       0.00462963 </v>
   <v>       0.00462963 </v>
   <v>       0.00462963 </v>
   <v>       0.00462963 </v>
   <v>       0.00462963 </v>
   <v>       0.00462963 </v>
   <v>       0.00462963 </v>
   <v>       0.00462963 </v>
   <v>       0.00462963 </v>
   <v>       0.00462963 </v>
   <v>       0.00231481 </v>
   <v>       0.00231481 </v>
   <v>       0.00462963 </v>
   <v>       0.00462963 </v>
   <v>       0.00462963 </v>
   <v>       0.00462963 </v>
   <v>       0.00462963 </v>
   <v>       0.00462963 </v>
   <v>       0.00462963 </v>
   <v>       0.00462963 </v>
   <v>       0.00462963 </v>
   <v>       0.00462963 </v>
   <v>       0.00462963 </v>
   <v>       0.00231481 </v>
   <v>       0.00231481 </v>
   <v>       0.00462963 </v>
   <v>       0.00462963 </v>
   <v>       0.00462963 </v>
   <v>       0.00462963 </v>
   <v>       0.00462963 </v>
   <v>       0.00462963 </v>
   <v>       0.00462963 </v>
   <v>       0.00462963 </v>
   <v>       0.00462963 </v>
   <v>       0.00462963 </v>
   <v>       0.00462963 </v>
   <v>       0.00231481 </v>
   <v>       0.00231481 </v>
   <v>       0.00462963 </v>
   <v>       0.00462963 </v>
   <v>       0.00462963 </v>
   <v>       0.00462963 </v>
   <v>       0.00462963 </v>
   <v>       0.00462963 </v>
   <v>       0.00462963 </v>
   <v>       0.00462963 </v>
   <v>       0.00462963 </v>
   <v>       0.00462963 </v>
   <v>       0.00462963 </v>
   <v>       0.00231481 </v>
   <v>       0.00231481 </v>
   <v>       0.00462963 </v>
   <v>       0.00462963 </v>
   <v>       0.00462963 </v>
   <v>       0.00462963 </v>
   <v>       0.00462963 </v>
   <v>       0.00462963 </v>
   <v>       0.00462963 </v>
   <v>       0.00462963 </v>
   <v>       0.00462963 </v>
   <v>       0.00462963 </v>
   <v>       0.00462963 </v>
   <v>       0.00231481 </v>
   <v>       0.00231481 </v>
   <v>       0.00462963 </v>
   <v>       0.00462963 </v>
   <v>       0.00462963 </v>
   <v>       0.00462963 </v>
   <v>       0.00462963 </v>
   <v>       0.00462963 </v>
   <v>       0.00462963 </v>
   <v>       0.00462963 </v>
   <v>       0.00462963 </v>
   <v>       0.00462963 </v>
   <v>       0.00462963 </v>
   <v>       0.00231481 </v>
   <v>       0.00231481 </v>
   <v>       0.00462963 </v>
   <v>       0.00462963 </v>
   <v>       0.00462963 </v>
   <v>       0.00462963 </v>
   <v>       0.00462963 </v>
   <v>       0.00462963 </v>
   <v>       0.00462963 </v>
   <v>       0.00462963 </v>
   <v>       0.00462963 </v>
   <v>       0.00462963 </v>
   <v>       0.00462963 </v>
   <v>       0.00231481 </v>
   <v>       0.00231481 </v>
   <v>       0.00462963 </v>
   <v>       0.00462963 </v>
   <v>       0.00462963 </v>
   <v>       0.00462963 </v>
   <v>       0.00462963 </v>
   <v>       0.00462963 </v>
   <v>       0.00462963 </v>
   <v>       0.00462963 </v>
   <v>       0.00462963 </v>
   <v>       0.00462963 </v>
   <v>       0.00462963 </v>
   <v>       0.00231481 </v>
   <v>       0.00231481 </v>
   <v>       0.00462963 </v>
   <v>       0.00462963 </v>
   <v>       0.00462963 </v>
   <v>       0.00462963 </v>
   <v>       0.00462963 </v>
   <v>       0.00462963 </v>
   <v>       0.00462963 </v>
   <v>       0.00462963 </v>
   <v>       0.00462963 </v>
   <v>       0.00462963 </v>
   <v>       0.00462963 </v>
   <v>       0.00231481 </v>
   <v>       0.00231481 </v>
   <v>       0.00462963 </v>
   <v>       0.00462963 </v>
   <v>       0.00462963 </v>
   <v>       0.00462963 </v>
   <v>       0.00462963 </v>
   <v>       0.00462963 </v>
   <v>       0.00462963 </v>
   <v>       0.00462963 </v>
   <v>       0.00462963 </v>
   <v>       0.00462963 </v>
   <v>       0.00462963 </v>
   <v>       0.00231481 </v>
   <v>       0.00231481 </v>
   <v>       0.00462963 </v>
   <v>       0.00462963 </v>
   <v>       0.00462963 </v>
   <v>       0.00462963 </v>
   <v>       0.00462963 </v>
   <v>       0.00462963 </v>
   <v>       0.00462963 </v>
   <v>       0.00462963 </v>
   <v>       0.00462963 </v>
   <v>       0.00462963 </v>
   <v>       0.00462963 </v>
   <v>       0.00231481 </v>
   <v>       0.00231481 </v>
   <v>       0.00462963 </v>
   <v>       0.00462963 </v>
   <v>       0.00462963 </v>
   <v>       0.00462963 </v>
   <v>       0.00462963 </v>
   <v>       0.00462963 </v>
   <v>       0.00462963 </v>
   <v>       0.00462963 </v>
   <v>       0.00462963 </v>
   <v>       0.00462963 </v>
   <v>       0.00462963 </v>
   <v>       0.00231481 </v>
   <v>       0.00231481 </v>
   <v>       0.00462963 </v>
   <v>       0.00462963 </v>
   <v>       0.00462963 </v>
   <v>       0.00462963 </v>
   <v>       0.00462963 </v>
   <v>       0.00462963 </v>
   <v>       0.00462963 </v>
   <v>       0.00462963 </v>
   <v>       0.00462963 </v>
   <v>       0.00462963 </v>
   <v>       0.00462963 </v>
   <v>       0.00231481 </v>
   <v>       0.00231481 </v>
   <v>       0.00462963 </v>
   <v>       0.00462963 </v>
   <v>       0.00462963 </v>
   <v>       0.00462963 </v>
   <v>       0.00462963 </v>
   <v>       0.00462963 </v>
   <v>       0.00462963 </v>
   <v>       0.00462963 </v>
   <v>       0.00462963 </v>
   <v>       0.00462963 </v>
   <v>       0.00462963 </v>
   <v>       0.00231481 </v>
   <v>       0.00115741 </v>
   <v>       0.00231481 </v>
   <v>       0.00231481 </v>
   <v>       0.00231481 </v>
   <v>       0.00231481 </v>
   <v>       0.00231481 </v>
   <v>       0.00231481 </v>
   <v>       0.00231481 </v>
   <v>       0.00231481 </v>
   <v>       0.00231481 </v>
   <v>       0.00231481 </v>
   <v>       0.00231481 </v>
   <v>       0.00115741 </v>
  </varray>
 </kpoints>
 <parameters>
  <separator name="general" >
   <i type="string" name="SYSTEM">gr</i>
   <i type="logical" name="LCOMPAT"> F  </i>
  </separator>
  <separator name="electronic" >
   <i type="string" name="PREC">accura</i>
   <i name="ENMAX">   2000.00000000</i>
   <i name="ENAUG">    644.87300000</i>
   <i name="EDIFF">      0.00000000</i>
   <i type="int" name="IALGO">    68</i>
   <i type="int" name="IWAVPR">    11</i>
   <i type="int" name="NBANDS">    12</i>
   <i name="NELECT">     16.00000000</i>
   <i type="int" name="TURBO">     0</i>
   <i type="int" name="IRESTART">     0</i>
   <i type="int" name="NREBOOT">     0</i>
   <i type="int" name="NMIN">     0</i>
   <i name="EREF">      0.00000000</i>
   <separator name="electronic smearing" >
    <i type="int" name="ISMEAR">     0</i>
    <i name="SIGMA">      0.05000000</i>
    <i name="KSPACING">      0.50000000</i>
    <i type="logical" name="KGAMMA"> T  </i>
   </separator>
   <separator name="electronic projectors" >
    <i type="logical" name="LREAL"> F  </i>
    <v name="ROPT">      0.00000000</v>
    <i type="int" name="LMAXPAW">  -100</i>
    <i type="int" name="LMAXMIX">     2</i>
    <i type="logical" name="NLSPLINE"> F  </i>
   </separator>
   <separator name="electronic startup" >
    <i type="int" name="ISTART">     0</i>
    <i type="int" name="ICHARG">     2</i>
    <i type="int" name="INIWAV">     1</i>
   </separator>
   <separator name="electronic spin" >
    <i type="int" name="ISPIN">     1</i>
    <i type="logical" name="LNONCOLLINEAR"> F  </i>
    <v name="MAGMOM">      1.00000000      1.00000000      1.00000000      1.00000000</v>
    <i name="NUPDOWN">     -1.00000000</i>
    <i type="logical" name="LSORBIT"> F  </i>
    <v name="SAXIS">      0.00000000      0.00000000      1.00000000</v>
    <i type="logical" name="LSPIRAL"> F  </i>
    <v name="QSPIRAL">      0.00000000      0.00000000      0.00000000</v>
    <i type="logical" name="LZEROZ"> F  </i>
   </separator>
   <separator name="electronic exchange-correlation" >
    <i type="logical" name="LASPH"> F  </i>
    <i type="logical" name="LMETAGGA"> F  </i>
   </separator>
   <separator name="electronic convergence" >
    <i type="int" name="NELM">   100</i>
    <i type="int" name="NELMDL">    -3</i>
    <i type="int" name="NELMIN">     5</i>
    <i name="ENINI">   2000.00000000</i>
    <separator name="electronic convergence detail" >
     <i type="logical" name="LDIAG"> T  </i>
     <i type="logical" name="LSUBROT"> F  </i>
     <i name="WEIMIN">      0.00100000</i>
     <i name="EBREAK">      0.00000000</i>
     <i name="DEPER">      0.30000000</i>
     <i type="int" name="NRMM">     4</i>
     <i name="TIME">      0.40000000</i>
    </separator>
   </separator>
   <separator name="electronic mixer" >
    <i name="AMIX">      0.40000000</i>
    <i name="BMIX">      1.00000000</i>
    <i name="AMIN">      0.10000000</i>
    <i name="AMIX_MAG">      1.60000000</i>
    <i name="BMIX_MAG">      1.00000000</i>
    <separator name="electronic mixer details" >
     <i type="int" name="IMIX">     4</i>
     <i type="int" name="MAXMIX">   -45</i>
     <i name="WC">    100.00000000</i>
     <i type="int" name="INIMIX">     1</i>
     <i type="int" name="MIXPRE">     1</i>
     <i type="int" name="MREMOVE">     5</i>
    </separator>
   </separator>
   <separator name="electronic dipolcorrection" >
    <i type="logical" name="LDIPOL"> F  </i>
    <i type="logical" name="LMONO"> F  </i>
    <i type="int" name="IDIPOL">     0</i>
    <i name="EPSILON">      1.00000000</i>
    <v name="DIPOL">   -100.00000000   -100.00000000   -100.00000000</v>
    <i name="EFIELD">      0.00000000</i>
   </separator>
  </separator>
  <separator name="grids" >
   <i type="int" name="NGX">    64</i>
   <i type="int" name="NGY">    40</i>
   <i type="int" name="NGZ">   288</i>
   <i type="int" name="NGXF">   128</i>
   <i type="int" name="NGYF">    80</i>
   <i type="int" name="NGZF">   576</i>
   <i type="logical" name="ADDGRID"> F  </i>
  </separator>
  <separator name="ionic" >
   <i type="int" name="NSW">   400</i>
   <i type="int" name="IBRION">     1</i>
   <i type="int" name="ISIF">     2</i>
   <i name="PSTRESS">      0.00000000</i>
   <i name="EDIFFG">     -0.00000100</i>
   <i type="int" name="NFREE">     0</i>
   <i name="POTIM">      0.50000000</i>
   <i name="SMASS">     -3.00000000</i>
   <i name="SCALEE">      1.00000000</i>
  </separator>
  <separator name="ionic md" >
   <i name="TEBEG">      0.00010000</i>
   <i name="TEEND">      0.00010000</i>
   <i type="int" name="NBLOCK">     1</i>
   <i type="int" name="KBLOCK">   400</i>
   <i type="int" name="NPACO">   256</i>
   <i name="APACO">     16.00000000</i>
  </separator>
  <separator name="symmetry" >
   <i type="int" name="ISYM">     2</i>
   <i name="SYMPREC">      0.00001000</i>
  </separator>
  <separator name="dos" >
   <i type="logical" name="LORBIT"> F  </i>
   <v name="RWIGS">     -1.00000000</v>
   <i type="int" name="NEDOS">   301</i>
   <i name="EMIN">     10.00000000</i>
   <i name="EMAX">    -10.00000000</i>
   <i name="EFERMI">      0.00000000</i>
  </separator>
  <separator name="writing" >
   <i type="int" name="NWRITE">     2</i>
   <i type="logical" name="LWAVE"> F  </i>
   <i type="logical" name="LCHARG"> F  </i>
   <i type="logical" name="LPARD"> F  </i>
   <i type="logical" name="LVTOT"> F  </i>
   <i type="logical" name="LVHAR"> F  </i>
   <i type="logical" name="LELF"> F  </i>
   <i type="logical" name="LOPTICS"> F  </i>
   <v name="STM">      0.00000000      0.00000000      0.00000000      0.00000000      0.00000000      0.00000000      0.00000000</v>
  </separator>
  <separator name="performance" >
   <i type="int" name="NPAR">     4</i>
   <i type="int" name="NSIM">     4</i>
   <i type="int" name="NBLK">    -1</i>
   <i type="logical" name="LPLANE"> T  </i>
   <i type="logical" name="LSCALAPACK"> F  </i>
   <i type="logical" name="LSCAAWARE"> F  </i>
   <i type="logical" name="LSCALU"> F  </i>
   <i type="logical" name="LASYNC"> F  </i>
   <i type="logical" name="LORBITALREAL"> F  </i>
  </separator>
  <separator name="miscellaneous" >
   <i type="int" name="IDIOT">     3</i>
   <i type="logical" name="LMUSIC"> F  </i>
   <v name="POMASS">     12.01100000</v>
   <v name="DARWINR">      0.00000000</v>
   <v name="DARWINV">      1.00000000</v>
   <i type="logical" name="LCORR"> T  </i>
  </separator>
  <i type="logical" name="GGA_COMPAT"> T  </i>
  <i type="logical" name="LBERRY"> F  </i>
  <i type="int" name="ICORELEVEL">     0</i>
  <i type="logical" name="LDAU"> F  </i>
  <i type="int" name="I_CONSTRAINED_M">     0</i>
  <separator name="electronic exchange-correlation" >
   <i type="string" name="GGA">--</i>
   <i type="int" name="VOSKOWN">     0</i>
   <i type="logical" name="LHFCALC"> F  </i>
   <i type="string" name="PRECFOCK"></i>
   <i type="logical" name="LSYMGRAD"> F  </i>
   <i type="logical" name="LHFONE"> F  </i>
   <i type="logical" name="LRHFCALC"> F  </i>
   <i type="logical" name="LTHOMAS"> F  </i>
   <i type="logical" name="LMODELHF"> F  </i>
   <i name="ENCUT4O">     -1.00000000</i>
   <i type="int" name="EXXOEP">     0</i>
   <i type="int" name="FOURORBIT">     0</i>
   <i name="AEXX">      0.00000000</i>
   <i name="HFALPHA">      0.00000000</i>
   <i name="MCALPHA">      0.00000000</i>
   <i name="ALDAX">      1.00000000</i>
   <i name="AGGAX">      1.00000000</i>
   <i name="ALDAC">      1.00000000</i>
   <i name="AGGAC">      1.00000000</i>
   <i type="int" name="NKREDX">     1</i>
   <i type="int" name="NKREDY">     1</i>
   <i type="int" name="NKREDZ">     1</i>
   <i type="logical" name="SHIFTRED"> F  </i>
   <i type="logical" name="ODDONLY"> F  </i>
   <i type="logical" name="EVENONLY"> F  </i>
   <i type="int" name="LMAXFOCK">     0</i>
   <i type="int" name="NMAXFOCKAE">     0</i>
   <i type="logical" name="LFOCKAEDFT"> F  </i>
   <i name="HFSCREEN">      0.00000000</i>
   <i name="HFSCREENC">      0.00000000</i>
   <i type="int" name="NBANDSGWLOW">     0</i>
  </separator>
  <separator name="vdW DFT" >
   <i type="logical" name="LUSE_VDW"> F  </i>
   <i name="Zab_VDW">     -0.84910000</i>
   <i name="PARAM1">      0.12340000</i>
   <i name="PARAM2">      1.00000000</i>
   <i name="PARAM3">      0.00000000</i>
  </separator>
  <separator name="model GW" >
   <i type="int" name="MODEL_GW">     0</i>
   <i name="MODEL_EPS0">     31.62568521</i>
   <i name="MODEL_ALPHA">      1.00000000</i>
  </separator>
  <separator name="linear response parameters" >
   <i type="logical" name="LEPSILON"> F  </i>
   <i type="logical" name="LRPA"> F  </i>
   <i type="logical" name="LNABLA"> F  </i>
   <i type="logical" name="LVEL"> F  </i>
   <i type="int" name="KINTER">     0</i>
   <i name="CSHIFT">      0.10000000</i>
   <i name="OMEGAMAX">     -1.00000000</i>
   <i name="DEG_THRESHOLD">      0.00200000</i>
  </separator>
  <separator name="orbital magnetization" >
   <i type="logical" name="NUCIND"> F  </i>
   <v name="MAGPOS">      0.00000000      0.00000000      0.00000000</v>
   <i type="logical" name="LNICSALL"> T  </i>
   <i type="logical" name="ORBITALMAG"> F  </i>
   <i type="logical" name="LMAGBLOCH"> F  </i>
   <i type="logical" name="LCHIMAG"> F  </i>
   <i type="logical" name="LGAUGE"> T  </i>
   <i type="int" name="MAGATOM">     0</i>
   <v name="MAGDIPOL">      0.00000000      0.00000000      0.00000000</v>
   <v name="AVECCONST">      0.00000000      0.00000000      0.00000000</v>
  </separator>
  <separator name="response functions" >
   <i type="logical" name="LADDER"> F  </i>
   <i type="logical" name="LFXC"> F  </i>
   <i type="logical" name="LHARTREE"> T  </i>
   <i type="int" name="IBSE">     0</i>
   <i type="logical" name="LTCTE"> F  </i>
   <i type="logical" name="LTETE"> F  </i>
   <i type="logical" name="LTRIPLET"> F  </i>
   <i type="logical" name="LFXCEPS"> F  </i>
   <i type="logical" name="LFXHEG"> F  </i>
   <i type="logical" name="L2ORDER"> F  </i>
   <i type="logical" name="LUSEW"> F  </i>
   <i name="ENCUTGW">     -2.00000000</i>
   <i name="ENCUTGWSOFT">     -2.00000000</i>
   <i name="ENCUTLF">     -1.00000000</i>
   <i type="int" name="LMAXMP2">    -1</i>
   <i name="SCISSOR">      0.00000000</i>
   <i type="int" name="NOMEGA">     0</i>
   <i type="int" name="NOMEGAR">     0</i>
   <i type="int" name="NBANDSGW">    -1</i>
   <i type="int" name="NBANDSO">    -1</i>
   <i type="int" name="NBANDSV">    -1</i>
   <i type="int" name="NELM">   100</i>
   <i type="int" name="DIM">     3</i>
   <i type="int" name="ANTIRES">     0</i>
   <i name="OMEGAMAX">    -30.00000000</i>
   <i name="OMEGAMIN">    -30.00000000</i>
   <i name="OMEGATL">   -200.00000000</i>
   <i type="int" name="OMEGAGRID">     0</i>
   <i name="CSHIFT">     -0.10000000</i>
   <i type="logical" name="SELFENERGY"> F  </i>
   <i type="logical" name="LSPECTRAL"> F  </i>
   <i type="logical" name="ODDONLYGW"> F  </i>
   <i type="logical" name="EVENONLYGW"> F  </i>
   <i type="int" name="NKREDLFX">     1</i>
   <i type="int" name="NKREDLFY">     1</i>
   <i type="int" name="NKREDLFZ">     1</i>
   <i type="int" name="MAXMEM">  1800</i>
   <i type="int" name="TELESCOPE">     0</i>
   <i type="int" name="TAUPAR">     1</i>
  </separator>
  <separator name="External order field" >
   <i name="OFIELD_KAPPA">      0.00000000</i>
   <v name="OFIELD_K">      0.00000000      0.00000000      0.00000000</v>
   <i name="OFIELD_Q6_NEAR">      0.00000000</i>
   <i name="OFIELD_Q6_FAR">      0.00000000</i>
   <i name="OFIELD_A">      0.00000000</i>
  </separator>
 </parameters>
 <atominfo>
  <atoms>       4 </atoms>
  <types>       1 </types>
  <array name="atoms" >
   <dimension dim="1">ion</dimension>
   <field type="string">element</field>
   <field type="int">atomtype</field>
   <set>
    <rc><c>C </c><c>   1</c></rc>
    <rc><c>C </c><c>   1</c></rc>
    <rc><c>C </c><c>   1</c></rc>
    <rc><c>C </c><c>   1</c></rc>
   </set>
  </array>
  <array name="atomtypes" >
   <dimension dim="1">type</dimension>
   <field type="int">atomspertype</field>
   <field type="string">element</field>
   <field>mass</field>
   <field>valence</field>
   <field type="string">pseudopotential</field>
   <set>
    <rc><c>   4</c><c>C </c><c>     12.01100000</c><c>      4.00000000</c><c> PAW_PBE C 08Apr2002                    </c></rc>
   </set>
  </array>
 </atominfo>
 <structure name="initialpos" >
  <crystal>
   <varray name="basis" >
    <v>       4.26186056       0.00000000       0.00000000 </v>
    <v>       0.00000000       2.50492746       0.00000000 </v>
    <v>       0.00000000       0.00000000      19.74941768 </v>
   </varray>
   <i name="volume">    210.83790140 </i>
   <varray name="rec_basis" >
    <v>       0.23463931       0.00000000       0.00000000 </v>
    <v>       0.00000000       0.39921316       0.00000000 </v>
    <v>       0.00000000       0.00000000       0.05063440 </v>
   </varray>
  </crystal>
  <varray name="positions" >
   <v>       0.00039382       0.00000000       0.00000000 </v>
   <v>       0.16627284       0.50000000       0.00000000 </v>
   <v>       0.50039382       0.50000000       0.00000000 </v>
   <v>       0.66627284       0.00000000       0.00000000 </v>
  </varray>
 </structure>
 <calculation>
  <scstep>
   <time name="dav">  315.27  315.46</time>
   <time name="total">  317.95  318.58</time>
   <energy>
    <i name="alphaZ">      6.18334092 </i>
    <i name="ewald">   2502.43252316 </i>
    <i name="hartreedc">  -2930.33979983 </i>
    <i name="XCdc">     54.92627754 </i>
    <i name="pawpsdc">    151.32577238 </i>
    <i name="pawaedc">   -155.92769107 </i>
    <i name="eentropy">     -0.00115784 </i>
    <i name="bandstr">    -29.65899679 </i>
    <i name="atom">    588.62352690 </i>
    <i name="e_fr_energy">    187.56379537 </i>
    <i name="e_wo_entrp">    187.56495321 </i>
    <i name="e_0_energy">    187.56437429 </i>
   </energy>
  </scstep>
  <scstep>
   <time name="dav">  477.28  478.86</time>
   <time name="total">  477.28  478.87</time>
   <energy>
    <i name="e_fr_energy">     -9.63884685 </i>
    <i name="e_wo_entrp">     -9.63859365 </i>
    <i name="e_0_energy">     -9.63872025 </i>
   </energy>
  </scstep>
  <scstep>
   <time name="dav">  369.13  369.29</time>
   <time name="total">  402.86  403.05</time>
   <energy>
    <i name="e_fr_energy">    -38.25884323 </i>
    <i name="e_wo_entrp">    -38.25884228 </i>
    <i name="e_0_energy">    -38.25884275 </i>
   </energy>
  </scstep>
  <scstep>
   <time name="diag">   87.17   87.19</time>
   <time name="diis">  368.00  368.11</time>
   <time name="orth">    3.10    3.10</time>
   <time name="total">  494.57  494.72</time>
   <energy>
    <i name="e_fr_energy">    -37.63982654 </i>
    <i name="e_wo_entrp">    -37.63982400 </i>
    <i name="e_0_energy">    -37.63982527 </i>
   </energy>
  </scstep>
  <scstep>
   <time name="diag">   87.23   87.26</time>
   <time name="diis">  364.38  364.81</time>
   <time name="orth">    3.08    3.10</time>
   <time name="total">  490.81  491.56</time>
   <energy>
    <i name="e_fr_energy">    -36.91004120 </i>
    <i name="e_wo_entrp">    -36.91003678 </i>
    <i name="e_0_energy">    -36.91003899 </i>
   </energy>
  </scstep>
  <scstep>
   <time name="diag">   86.89   87.26</time>
   <time name="diis">  401.75  401.87</time>
   <time name="orth">    3.10    3.10</time>
   <time name="total">  528.09  528.60</time>
   <energy>
    <i name="e_fr_energy">    -36.91176908 </i>
    <i name="e_wo_entrp">    -36.91176469 </i>
    <i name="e_0_energy">    -36.91176689 </i>
   </energy>
  </scstep>
  <scstep>
   <time name="diag">   87.21   87.30</time>
   <time name="diis">  362.46  364.21</time>
   <time name="orth">    3.09    3.11</time>
   <time name="total">  488.87  490.94</time>
   <energy>
    <i name="e_fr_energy">    -36.90275638 </i>
    <i name="e_wo_entrp">    -36.90275256 </i>
    <i name="e_0_energy">    -36.90275447 </i>
   </energy>
  </scstep>
  <scstep>
   <time name="diag">   87.34   87.40</time>
   <time name="diis">  365.29  365.37</time>
   <time name="orth">    3.08    3.08</time>
   <time name="total">  492.02  492.22</time>
   <energy>
    <i name="e_fr_energy">    -36.89722272 </i>
    <i name="e_wo_entrp">    -36.89721874 </i>
    <i name="e_0_energy">    -36.89722073 </i>
   </energy>
  </scstep>
  <scstep>
   <time name="diag">   87.19   87.21</time>
   <time name="diis">  350.73  351.05</time>
   <time name="orth">    3.10    3.10</time>
   <time name="total">  477.33  477.72</time>
   <energy>
    <i name="e_fr_energy">    -36.89707420 </i>
    <i name="e_wo_entrp">    -36.89706995 </i>
    <i name="e_0_energy">    -36.89707207 </i>
   </energy>
  </scstep>
  <scstep>
   <time name="diag">   87.18   87.21</time>
   <time name="diis">  351.16  351.48</time>
   <time name="orth">    3.08    3.08</time>
   <time name="total">  477.72  478.09</time>
   <energy>
    <i name="e_fr_energy">    -36.89688379 </i>
    <i name="e_wo_entrp">    -36.89687971 </i>
    <i name="e_0_energy">    -36.89688175 </i>
   </energy>
  </scstep>
  <scstep>
   <time name="diag">   87.23   87.28</time>
   <time name="diis">  351.66  353.22</time>
   <time name="orth">    3.08    3.08</time>
   <time name="total">  478.26  480.68</time>
   <energy>
    <i name="e_fr_energy">    -36.89932396 </i>
    <i name="e_wo_entrp">    -36.89931995 </i>
    <i name="e_0_energy">    -36.89932196 </i>
   </energy>
  </scstep>
  <scstep>
   <time name="diag">   87.17   87.19</time>
   <time name="diis">  352.09  352.66</time>
   <time name="orth">    3.08    3.08</time>
   <time name="total">  478.39  479.42</time>
   <energy>
    <i name="e_fr_energy">    -36.89977572 </i>
    <i name="e_wo_entrp">    -36.89977165 </i>
    <i name="e_0_energy">    -36.89977368 </i>
   </energy>
  </scstep>
  <scstep>
   <time name="diag">   86.79   87.28</time>
   <time name="diis">  355.70  357.20</time>
   <time name="orth">    3.08    3.08</time>
   <time name="total">  481.86  483.90</time>
   <energy>
    <i name="e_fr_energy">    -36.90003698 </i>
    <i name="e_wo_entrp">    -36.90003289 </i>
    <i name="e_0_energy">    -36.90003494 </i>
   </energy>
  </scstep>
  <scstep>
   <time name="diag">   86.84   87.19</time>
   <time name="diis">  352.25  354.09</time>
   <time name="orth">    3.08    3.08</time>
   <time name="total">  478.49  480.72</time>
   <energy>
    <i name="e_fr_energy">    -36.90011854 </i>
    <i name="e_wo_entrp">    -36.90011448 </i>
    <i name="e_0_energy">    -36.90011651 </i>
   </energy>
  </scstep>
  <scstep>
   <time name="diag">   87.16   87.18</time>
   <time name="diis">  355.30  355.41</time>
   <time name="orth">    3.09    3.09</time>
   <time name="total">  481.85  482.05</time>
   <energy>
    <i name="e_fr_energy">    -36.90012818 </i>
    <i name="e_wo_entrp">    -36.90012411 </i>
    <i name="e_0_energy">    -36.90012615 </i>
   </energy>
  </scstep>
  <scstep>
   <time name="diag">   87.12   87.14</time>
   <time name="diis">  353.00  353.12</time>
   <time name="orth">    3.10    3.10</time>
   <time name="total">  479.55  479.71</time>
   <energy>
    <i name="e_fr_energy">    -36.90014084 </i>
    <i name="e_wo_entrp">    -36.90013677 </i>
    <i name="e_0_energy">    -36.90013881 </i>
   </energy>
  </scstep>
  <scstep>
   <time name="diag">   87.08   87.11</time>
   <time name="diis">  363.84  364.32</time>
   <time name="orth">    3.07    3.09</time>
   <time name="total">  490.13  490.97</time>
   <energy>
    <i name="e_fr_energy">    -36.90014569 </i>
    <i name="e_wo_entrp">    -36.90014162 </i>
    <i name="e_0_energy">    -36.90014365 </i>
   </energy>
  </scstep>
  <scstep>
   <time name="diag">   86.70   87.21</time>
   <time name="diis">  350.08  350.85</time>
   <time name="orth">    3.07    3.08</time>
   <time name="total">  476.22  477.53</time>
   <energy>
    <i name="e_fr_energy">    -36.90014691 </i>
    <i name="e_wo_entrp">    -36.90014283 </i>
    <i name="e_0_energy">    -36.90014487 </i>
   </energy>
  </scstep>
  <scstep>
   <time name="diag">   86.84   87.08</time>
   <time name="diis">  360.33  362.49</time>
   <time name="orth">    3.07    3.07</time>
   <time name="total">  486.37  489.24</time>
   <energy>
    <i name="e_fr_energy">    -36.90014765 </i>
    <i name="e_wo_entrp">    -36.90014357 </i>
    <i name="e_0_energy">    -36.90014561 </i>
   </energy>
  </scstep>
  <scstep>
   <time name="diag">   86.73   87.10</time>
   <time name="diis">  272.93  274.40</time>
   <time name="orth">    3.07    3.07</time>
   <time name="total">  398.85  401.04</time>
   <energy>
    <i name="e_fr_energy">    -36.90014771 </i>
    <i name="e_wo_entrp">    -36.90014363 </i>
    <i name="e_0_energy">    -36.90014567 </i>
   </energy>
  </scstep>
  <scstep>
   <time name="diag">   86.65   87.10</time>
   <time name="diis">  271.57  271.98</time>
   <time name="orth">    3.08    3.08</time>
   <time name="total">  397.53  398.56</time>
   <energy>
    <i name="e_fr_energy">    -36.90014772 </i>
    <i name="e_wo_entrp">    -36.90014365 </i>
    <i name="e_0_energy">    -36.90014569 </i>
   </energy>
  </scstep>
  <scstep>
   <time name="diag">   86.61   87.19</time>
   <time name="diis">  242.36  242.58</time>
   <time name="orth">    3.07    3.11</time>
   <time name="total">  368.38  369.27</time>
   <energy>
    <i name="e_fr_energy">    -36.90014772 </i>
    <i name="e_wo_entrp">    -36.90014365 </i>
    <i name="e_0_energy">    -36.90014569 </i>
   </energy>
  </scstep>
  <scstep>
   <time name="diag">   87.05   87.09</time>
   <time name="diis">  230.67  230.76</time>
   <time name="orth">    3.07    3.07</time>
   <time name="total">  357.05  357.26</time>
   <energy>
    <i name="e_fr_energy">    -36.90014772 </i>
    <i name="e_wo_entrp">    -36.90014365 </i>
    <i name="e_0_energy">    -36.90014569 </i>
   </energy>
  </scstep>
  <scstep>
   <time name="diag">   86.95   86.98</time>
   <time name="diis">  219.39  219.44</time>
   <time name="orth">    3.09    3.09</time>
   <time name="total">  345.85  345.93</time>
   <energy>
    <i name="e_fr_energy">    -36.90014772 </i>
    <i name="e_wo_entrp">    -36.90014365 </i>
    <i name="e_0_energy">    -36.90014569 </i>
   </energy>
  </scstep>
  <scstep>
   <time name="diag">   86.98   87.05</time>
   <time name="diis">  208.88  209.02</time>
   <time name="orth">    3.09    3.10</time>
   <time name="total">  301.54  301.81</time>
   <energy>
    <i name="alphaZ">      6.18334092 </i>
    <i name="ewald">   2502.43252316 </i>
    <i name="hartreedc">  -2996.58742271 </i>
    <i name="XCdc">     57.28994733 </i>
    <i name="pawpsdc">    272.00109744 </i>
    <i name="pawaedc">   -277.12691467 </i>
    <i name="eentropy">     -0.00000407 </i>
    <i name="bandstr">   -189.71624202 </i>
    <i name="atom">    588.62352690 </i>
    <i name="e_fr_energy">    -36.90014772 </i>
    <i name="e_wo_entrp">    -36.90014365 </i>
    <i name="e_0_energy">    -36.90014569 </i>
   </energy>
  </scstep>
  <structure>
   <crystal>
    <varray name="basis" >
     <v>       4.26186056       0.00000000       0.00000000 </v>
     <v>       0.00000000       2.50492746       0.00000000 </v>
     <v>       0.00000000       0.00000000      19.74941768 </v>
    </varray>
    <i name="volume">    210.83790140 </i>
    <varray name="rec_basis" >
     <v>       0.23463931       0.00000000       0.00000000 </v>
     <v>       0.00000000       0.39921316       0.00000000 </v>
     <v>       0.00000000       0.00000000       0.05063440 </v>
    </varray>
   </crystal>
   <varray name="positions" >
    <v>       0.00039382       0.00000000       0.00000000 </v>
    <v>       0.16627284       0.50000000       0.00000000 </v>
    <v>       0.50039382       0.50000000       0.00000000 </v>
    <v>       0.66627284       0.00000000       0.00000000 </v>
   </varray>
  </structure>
  <varray name="forces" >
   <v>       0.00236584       0.00000000      -0.00000000 </v>
   <v>      -0.00236584      -0.00000000       0.00000000 </v>
   <v>       0.00236584       0.00000000      -0.00000000 </v>
   <v>      -0.00236584      -0.00000000       0.00000000 </v>
  </varray>
  <varray name="stress" >
   <v>       0.01435057       0.00000000       0.00000000 </v>
   <v>       0.00000000     -25.32254014       0.00000000 </v>
   <v>       0.00000000       0.00000000      -0.01031285 </v>
  </varray>
  <energy>
   <i name="e_fr_energy">    -36.90014772 </i>
   <i name="e_wo_entrp">    -36.90014569 </i>
   <i name="e_0_energy">     -0.00000407 </i>
  </energy>
  <time name="totalsc">11251.9811276.81</time>
 </calculation>
 <calculation>
  <scstep>
   <time name="dav">  334.24  335.07</time>
   <time name="total">  370.62  371.46</time>
   <energy>
    <i name="alphaZ">      6.18334092 </i>
    <i name="ewald">   2502.43103296 </i>
    <i name="hartreedc">  -2996.58677563 </i>
    <i name="XCdc">     57.28990475 </i>
    <i name="pawpsdc">    272.00109711 </i>
    <i name="pawaedc">   -277.12691433 </i>
    <i name="eentropy">     -0.00000459 </i>
    <i name="bandstr">   -189.71535414 </i>
    <i name="atom">    588.62352690 </i>
    <i name="e_fr_energy">    -36.90014604 </i>
    <i name="e_wo_entrp">    -36.90014145 </i>
    <i name="e_0_energy">    -36.90014375 </i>
   </energy>
  </scstep>
  <scstep>
   <time name="diag">   87.18   87.25</time>
   <time name="diis">  351.26  351.35</time>
   <time name="orth">    3.10    3.10</time>
   <time name="total">  477.92  478.09</time>
   <energy>
    <i name="e_fr_energy">    -36.90014613 </i>
    <i name="e_wo_entrp">    -36.90014156 </i>
    <i name="e_0_energy">    -36.90014385 </i>
   </energy>
  </scstep>
  <scstep>
   <time name="diag">   86.89   87.19</time>
   <time name="diis">  354.30  354.49</time>
   <time name="orth">    3.10    3.10</time>
   <time name="total">  480.60  481.35</time>
   <energy>
    <i name="e_fr_energy">    -36.90014605 </i>
    <i name="e_wo_entrp">    -36.90014151 </i>
    <i name="e_0_energy">    -36.90014378 </i>
   </energy>
  </scstep>
  <scstep>
   <time name="diag">   87.13   87.16</time>
   <time name="diis">  361.21  361.32</time>
   <time name="orth">    3.11    3.11</time>
   <time name="total">  487.79  487.95</time>
   <energy>
    <i name="e_fr_energy">    -36.90014605 </i>
    <i name="e_wo_entrp">    -36.90014150 </i>
    <i name="e_0_energy">    -36.90014377 </i>
   </energy>
  </scstep>
  <scstep>
   <time name="diag">   87.19   87.21</time>
   <time name="diis">  350.67  350.80</time>
   <time name="orth">    3.09    3.09</time>
   <time name="total">  477.27  477.57</time>
   <energy>
    <i name="e_fr_energy">    -36.90014605 </i>
    <i name="e_wo_entrp">    -36.90014149 </i>
    <i name="e_0_energy">    -36.90014377 </i>
   </energy>
  </scstep>
  <scstep>
   <time name="diag">   87.19   87.22</time>
   <time name="diis">  256.87  257.37</time>
   <time name="orth">    3.08    3.10</time>
   <time name="total">  383.28  384.07</time>
   <energy>
    <i name="e_fr_energy">    -36.90014605 </i>
    <i name="e_wo_entrp">    -36.90014149 </i>
    <i name="e_0_energy">    -36.90014377 </i>
   </energy>
  </scstep>
  <scstep>
   <time name="diag">   86.86   87.16</time>
   <time name="diis">  233.74  234.99</time>
   <time name="orth">    3.08    3.08</time>
   <time name="total">  359.81  361.58</time>
   <energy>
    <i name="e_fr_energy">    -36.90014605 </i>
    <i name="e_wo_entrp">    -36.90014149 </i>
    <i name="e_0_energy">    -36.90014377 </i>
   </energy>
  </scstep>
  <scstep>
   <time name="diag">   86.78   87.21</time>
   <time name="diis">  224.91  226.03</time>
   <time name="orth">    3.08    3.10</time>
   <time name="total">  350.92  353.97</time>
   <energy>
    <i name="e_fr_energy">    -36.90014605 </i>
    <i name="e_wo_entrp">    -36.90014149 </i>
    <i name="e_0_energy">    -36.90014377 </i>
   </energy>
  </scstep>
  <scstep>
   <time name="diag">   87.15   87.17</time>
   <time name="diis">  220.16  220.22</time>
   <time name="orth">    3.08    3.08</time>
   <time name="total">  346.15  346.31</time>
   <energy>
    <i name="e_fr_energy">    -36.90014605 </i>
    <i name="e_wo_entrp">    -36.90014149 </i>
    <i name="e_0_energy">    -36.90014377 </i>
   </energy>
  </scstep>
  <scstep>
   <time name="diag">   87.15   87.17</time>
   <time name="diis">  210.21  210.35</time>
   <time name="orth">    3.10    3.10</time>
   <time name="total">  303.09  303.26</time>
   <energy>
    <i name="alphaZ">      6.18334092 </i>
    <i name="ewald">   2502.43103296 </i>
    <i name="hartreedc">  -2996.58614393 </i>
    <i name="XCdc">     57.28987922 </i>
    <i name="pawpsdc">    271.99850952 </i>
    <i name="pawaedc">   -277.12431553 </i>
    <i name="eentropy">     -0.00000455 </i>
    <i name="bandstr">   -189.71597156 </i>
    <i name="atom">    588.62352690 </i>
    <i name="e_fr_energy">    -36.90014605 </i>
    <i name="e_wo_entrp">    -36.90014149 </i>
    <i name="e_0_energy">    -36.90014377 </i>
   </energy>
  </scstep>
  <structure>
   <crystal>
    <varray name="basis" >
     <v>       4.26186056       0.00000000       0.00000000 </v>
     <v>       0.00000000       2.50492746       0.00000000 </v>
     <v>       0.00000000       0.00000000      19.74941768 </v>
    </varray>
    <i name="volume">    210.83790140 </i>
    <varray name="rec_basis" >
     <v>       0.23463931       0.00000000       0.00000000 </v>
     <v>       0.00000000       0.39921316       0.00000000 </v>
     <v>       0.00000000       0.00000000       0.05063440 </v>
    </varray>
   </crystal>
   <varray name="positions" >
    <v>       0.00042060       0.00000000      -0.00000000 </v>
    <v>       0.16624606       0.50000000       0.00000000 </v>
    <v>       0.50042060       0.50000000      -0.00000000 </v>
    <v>       0.66624606      -0.00000000       0.00000000 </v>
   </varray>
  </structure>
  <varray name="forces" >
   <v>      -0.00963729       0.00000000       0.00000000 </v>
   <v>       0.00963729      -0.00000000      -0.00000000 </v>
   <v>      -0.00963729       0.00000000       0.00000000 </v>
   <v>       0.00963729       0.00000000      -0.00000000 </v>
  </varray>
  <varray name="stress" >
   <v>      -0.03027859       0.00000000       0.00000000 </v>
   <v>       0.00000000     -25.28948904       0.00000000 </v>
   <v>       0.00000000       0.00000000      -0.01033866 </v>
  </varray>
  <energy>
   <i name="e_fr_energy">    -36.90014605 </i>
   <i name="e_wo_entrp">    -36.90014377 </i>
   <i name="e_0_energy">     -0.00000455 </i>
  </energy>
  <time name="totalsc"> 4142.79 4151.11</time>
 </calculation>
 <calculation>
  <scstep>
   <time name="dav">  343.78  344.50</time>
   <time name="total">  379.87  380.60</time>
   <energy>
    <i name="alphaZ">      6.18334092 </i>
    <i name="ewald">   2502.43222800 </i>
    <i name="hartreedc">  -2996.58666054 </i>
    <i name="XCdc">     57.28991327 </i>
    <i name="pawpsdc">    271.99850798 </i>
    <i name="pawaedc">   -277.12431398 </i>
    <i name="eentropy">     -0.00000413 </i>
    <i name="bandstr">   -189.71668622 </i>
    <i name="atom">    588.62352690 </i>
    <i name="e_fr_energy">    -36.90014781 </i>
    <i name="e_wo_entrp">    -36.90014367 </i>
    <i name="e_0_energy">    -36.90014574 </i>
   </energy>
  </scstep>
  <scstep>
   <time name="diag">   87.16   87.25</time>
   <time name="diis">  352.01  352.56</time>
   <time name="orth">    3.10    3.11</time>
   <time name="total">  478.32  479.18</time>
   <energy>
    <i name="e_fr_energy">    -36.90014786 </i>
    <i name="e_wo_entrp">    -36.90014372 </i>
    <i name="e_0_energy">    -36.90014579 </i>
   </energy>
  </scstep>
  <scstep>
   <time name="diag">   87.10   87.15</time>
   <time name="diis">  356.26  356.40</time>
   <time name="orth">    3.09    3.09</time>
   <time name="total">  482.31  482.55</time>
   <energy>
    <i name="e_fr_energy">    -36.90014783 </i>
    <i name="e_wo_entrp">    -36.90014366 </i>
    <i name="e_0_energy">    -36.90014575 </i>
   </energy>
  </scstep>
  <scstep>
   <time name="diag">   87.09   87.12</time>
   <time name="diis">  362.98  363.12</time>
   <time name="orth">    3.08    3.08</time>
   <time name="total">  489.36  489.77</time>
   <energy>
    <i name="e_fr_energy">    -36.90014783 </i>
    <i name="e_wo_entrp">    -36.90014366 </i>
    <i name="e_0_energy">    -36.90014574 </i>
   </energy>
  </scstep>
  <scstep>
   <time name="diag">   86.77   87.19</time>
   <time name="diis">  328.91  330.63</time>
   <time name="orth">    3.08    3.10</time>
   <time name="total">  454.51  456.90</time>
   <energy>
    <i name="e_fr_energy">    -36.90014783 </i>
    <i name="e_wo_entrp">    -36.90014366 </i>
    <i name="e_0_energy">    -36.90014574 </i>
   </energy>
  </scstep>
  <scstep>
   <time name="diag">   86.80   87.11</time>
   <time name="diis">  240.73  240.80</time>
   <time name="orth">    3.08    3.08</time>
   <time name="total">  366.89  367.46</time>
   <energy>
    <i name="e_fr_energy">    -36.90014783 </i>
    <i name="e_wo_entrp">    -36.90014366 </i>
    <i name="e_0_energy">    -36.90014574 </i>
   </energy>
  </scstep>
  <scstep>
   <time name="diag">   87.02   87.05</time>
   <time name="diis">  234.34  234.42</time>
   <time name="orth">    3.12    3.13</time>
   <time name="total">  360.82  360.96</time>
   <energy>
    <i name="e_fr_energy">    -36.90014783 </i>
    <i name="e_wo_entrp">    -36.90014366 </i>
    <i name="e_0_energy">    -36.90014574 </i>
   </energy>
  </scstep>
  <scstep>
   <time name="diag">   87.11   87.13</time>
   <time name="diis">  223.72  223.78</time>
   <time name="orth">    3.10    3.11</time>
   <time name="total">  316.57  316.66</time>
   <energy>
    <i name="alphaZ">      6.18334092 </i>
    <i name="ewald">   2502.43222800 </i>
    <i name="hartreedc">  -2996.58714835 </i>
    <i name="XCdc">     57.28993382 </i>
    <i name="pawpsdc">    272.00058850 </i>
    <i name="pawaedc">   -277.12640360 </i>
    <i name="eentropy">     -0.00000417 </i>
    <i name="bandstr">   -189.71620985 </i>
    <i name="atom">    588.62352690 </i>
    <i name="e_fr_energy">    -36.90014783 </i>
    <i name="e_wo_entrp">    -36.90014366 </i>
    <i name="e_0_energy">    -36.90014574 </i>
   </energy>
  </scstep>
  <structure>
   <crystal>
    <varray name="basis" >
     <v>       4.26186056       0.00000000       0.00000000 </v>
     <v>       0.00000000       2.50492746       0.00000000 </v>
     <v>       0.00000000       0.00000000      19.74941768 </v>
    </varray>
    <i name="volume">    210.83790140 </i>
    <varray name="rec_basis" >
     <v>       0.23463931       0.00000000       0.00000000 </v>
     <v>       0.00000000       0.39921316       0.00000000 </v>
     <v>       0.00000000       0.00000000       0.05063440 </v>
    </varray>
   </crystal>
   <varray name="positions" >
    <v>       0.00039910       0.00000000      -0.00000000 </v>
    <v>       0.16626756       0.50000000       0.00000000 </v>
    <v>       0.50039910       0.50000000      -0.00000000 </v>
    <v>       0.66626756      -0.00000000       0.00000000 </v>
   </varray>
  </structure>
  <varray name="forces" >
   <v>      -0.00000390      -0.00000000       0.00000000 </v>
   <v>       0.00000390       0.00000000       0.00000000 </v>
   <v>      -0.00000390      -0.00000000       0.00000000 </v>
   <v>       0.00000390       0.00000000       0.00000000 </v>
  </varray>
  <varray name="stress" >
   <v>       0.00552793       0.00000000       0.00000000 </v>
   <v>       0.00000000     -25.31599707       0.00000000 </v>
   <v>       0.00000000       0.00000000      -0.01027831 </v>
  </varray>
  <energy>
   <i name="e_fr_energy">    -36.90014783 </i>
   <i name="e_wo_entrp">    -36.90014574 </i>
   <i name="e_0_energy">     -0.00000417 </i>
  </energy>
  <time name="totalsc"> 3434.44 3439.97</time>
 </calculation>
 <calculation>
  <scstep>
   <time name="dav">  283.53  284.04</time>
   <time name="total">  319.72  320.24</time>
   <energy>
    <i name="alphaZ">      6.18334092 </i>
    <i name="ewald">   2502.43222848 </i>
    <i name="hartreedc">  -2996.58715325 </i>
    <i name="XCdc">     57.28993383 </i>
    <i name="pawpsdc">    272.00058500 </i>
    <i name="pawaedc">   -277.12640007 </i>
    <i name="eentropy">     -0.00000417 </i>
    <i name="bandstr">   -189.71620548 </i>
    <i name="atom">    588.62352690 </i>
    <i name="e_fr_energy">    -36.90014783 </i>
    <i name="e_wo_entrp">    -36.90014366 </i>
    <i name="e_0_energy">    -36.90014574 </i>
   </energy>
  </scstep>
  <scstep>
   <time name="diag">   87.09   87.12</time>
   <time name="diis">  179.04  179.09</time>
   <time name="orth">    3.18    3.19</time>
   <time name="total">  305.62  305.73</time>
   <energy>
    <i name="e_fr_energy">    -36.90014783 </i>
    <i name="e_wo_entrp">    -36.90014366 </i>
    <i name="e_0_energy">    -36.90014574 </i>
   </energy>
  </scstep>
  <scstep>
   <time name="diag">   87.09   87.11</time>
   <time name="diis">  174.53  174.57</time>
   <time name="orth">    3.14    3.14</time>
   <time name="total">  300.98  301.07</time>
   <energy>
    <i name="e_fr_energy">    -36.90014783 </i>
    <i name="e_wo_entrp">    -36.90014366 </i>
    <i name="e_0_energy">    -36.90014574 </i>
   </energy>
  </scstep>
  <scstep>
   <time name="diag">   87.09   87.12</time>
   <time name="diis">  172.27  172.32</time>
   <time name="orth">    3.19    3.19</time>
   <time name="total">  298.82  299.78</time>
   <energy>
    <i name="e_fr_energy">    -36.90014783 </i>
    <i name="e_wo_entrp">    -36.90014366 </i>
    <i name="e_0_energy">    -36.90014574 </i>
   </energy>
  </scstep>
  <scstep>
   <time name="diag">   87.12   87.15</time>
   <time name="diis">  170.57  170.62</time>
   <time name="orth">    3.10    3.10</time>
   <time name="total">  297.13  297.29</time>
   <energy>
    <i name="e_fr_energy">    -36.90014783 </i>
    <i name="e_wo_entrp">    -36.90014366 </i>
    <i name="e_0_energy">    -36.90014574 </i>
   </energy>
  </scstep>
  <scstep>
   <time name="diag">   86.96   87.14</time>
   <time name="diis">  166.82  167.71</time>
   <time name="orth">    3.07    3.10</time>
   <time name="total">  293.06  294.42</time>
   <energy>
    <i name="e_fr_energy">    -36.90014783 </i>
    <i name="e_wo_entrp">    -36.90014366 </i>
    <i name="e_0_energy">    -36.90014574 </i>
   </energy>
  </scstep>
  <scstep>
   <time name="diag">   86.71   87.14</time>
   <time name="diis">  165.83  166.67</time>
   <time name="orth">    3.08    3.08</time>
   <time name="total">  291.75  293.23</time>
   <energy>
    <i name="e_fr_energy">    -36.90014783 </i>
    <i name="e_wo_entrp">    -36.90014366 </i>
    <i name="e_0_energy">    -36.90014574 </i>
   </energy>
  </scstep>
  <scstep>
   <time name="diag">   86.62   87.09</time>
   <time name="diis">  160.62  161.44</time>
   <time name="orth">    3.08    3.10</time>
   <time name="total">  286.38  288.10</time>
   <energy>
    <i name="e_fr_energy">    -36.90014783 </i>
    <i name="e_wo_entrp">    -36.90014366 </i>
    <i name="e_0_energy">    -36.90014574 </i>
   </energy>
  </scstep>
  <scstep>
   <time name="diag">   86.61   87.11</time>
   <time name="diis">  157.53  157.72</time>
   <time name="orth">    3.10    3.10</time>
   <time name="total">  249.89  250.59</time>
   <energy>
    <i name="alphaZ">      6.18334092 </i>
    <i name="ewald">   2502.43222848 </i>
    <i name="hartreedc">  -2996.58717229 </i>
    <i name="XCdc">     57.28993398 </i>
    <i name="pawpsdc">    272.00058656 </i>
    <i name="pawaedc">   -277.12640162 </i>
    <i name="eentropy">     -0.00000417 </i>
    <i name="bandstr">   -189.71618660 </i>
    <i name="atom">    588.62352690 </i>
    <i name="e_fr_energy">    -36.90014783 </i>
    <i name="e_wo_entrp">    -36.90014366 </i>
    <i name="e_0_energy">    -36.90014574 </i>
   </energy>
  </scstep>
  <structure>
   <crystal>
    <varray name="basis" >
     <v>       4.26186056       0.00000000       0.00000000 </v>
     <v>       0.00000000       2.50492746       0.00000000 </v>
     <v>       0.00000000       0.00000000      19.74941768 </v>
    </varray>
    <i name="volume">    210.83790140 </i>
    <varray name="rec_basis" >
     <v>       0.23463931       0.00000000       0.00000000 </v>
     <v>       0.00000000       0.39921316       0.00000000 </v>
     <v>       0.00000000       0.00000000       0.05063440 </v>
    </varray>
   </crystal>
   <varray name="positions" >
    <v>       0.00039909       0.00000000      -0.00000000 </v>
    <v>       0.16626757       0.50000000       0.00000000 </v>
    <v>       0.50039909       0.50000000      -0.00000000 </v>
    <v>       0.66626757      -0.00000000       0.00000000 </v>
   </varray>
  </structure>
  <varray name="forces" >
   <v>       0.00000458       0.00000000       0.00000000 </v>
   <v>      -0.00000458      -0.00000000      -0.00000000 </v>
   <v>       0.00000458       0.00000000       0.00000000 </v>
   <v>      -0.00000458      -0.00000000      -0.00000000 </v>
  </varray>
  <varray name="stress" >
   <v>       0.00555859       0.00000000       0.00000000 </v>
   <v>       0.00000000     -25.31602754       0.00000000 </v>
   <v>       0.00000000       0.00000000      -0.01029158 </v>
  </varray>
  <energy>
   <i name="e_fr_energy">    -36.90014783 </i>
   <i name="e_wo_entrp">    -36.90014574 </i>
   <i name="e_0_energy">     -0.00000417 </i>
  </energy>
  <time name="totalsc"> 2749.02 2756.35</time>
 </calculation>
 <calculation>
  <scstep>
   <time name="dav">  270.67  271.34</time>
   <time name="total">  307.05  307.75</time>
   <energy>
    <i name="alphaZ">      6.18334092 </i>
    <i name="ewald">   2502.43222822 </i>
    <i name="hartreedc">  -2996.58717216 </i>
    <i name="XCdc">     57.28993398 </i>
    <i name="pawpsdc">    272.00058658 </i>
    <i name="pawaedc">   -277.12640164 </i>
    <i name="eentropy">     -0.00000417 </i>
    <i name="bandstr">   -189.71618646 </i>
    <i name="atom">    588.62352690 </i>
    <i name="e_fr_energy">    -36.90014783 </i>
    <i name="e_wo_entrp">    -36.90014366 </i>
    <i name="e_0_energy">    -36.90014574 </i>
   </energy>
  </scstep>
  <scstep>
   <time name="diag">   87.11   87.16</time>
   <time name="diis">  157.02  157.20</time>
   <time name="orth">    3.09    3.10</time>
   <time name="total">  283.58  283.84</time>
   <energy>
    <i name="e_fr_energy">    -36.90014783 </i>
    <i name="e_wo_entrp">    -36.90014366 </i>
    <i name="e_0_energy">    -36.90014574 </i>
   </energy>
  </scstep>
  <scstep>
   <time name="diag">   87.02   87.13</time>
   <time name="diis">  157.24  157.80</time>
   <time name="orth">    3.08    3.10</time>
   <time name="total">  283.32  284.34</time>
   <energy>
    <i name="e_fr_energy">    -36.90014783 </i>
    <i name="e_wo_entrp">    -36.90014366 </i>
    <i name="e_0_energy">    -36.90014574 </i>
   </energy>
  </scstep>
  <scstep>
   <time name="diag">   86.45   87.11</time>
   <time name="diis">  156.51  157.80</time>
   <time name="orth">    3.08    3.08</time>
   <time name="total">  281.93  284.29</time>
   <energy>
    <i name="e_fr_energy">    -36.90014783 </i>
    <i name="e_wo_entrp">    -36.90014366 </i>
    <i name="e_0_energy">    -36.90014574 </i>
   </energy>
  </scstep>
  <scstep>
   <time name="diag">   86.53   87.10</time>
   <time name="diis">  156.44  157.56</time>
   <time name="orth">    3.08    3.08</time>
   <time name="total">  248.66  250.42</time>
   <energy>
    <i name="alphaZ">      6.18334092 </i>
    <i name="ewald">   2502.43222822 </i>
    <i name="hartreedc">  -2996.58716909 </i>
    <i name="XCdc">     57.28993387 </i>
    <i name="pawpsdc">    272.00058435 </i>
    <i name="pawaedc">   -277.12639939 </i>
    <i name="eentropy">     -0.00000417 </i>
    <i name="bandstr">   -189.71618945 </i>
    <i name="atom">    588.62352690 </i>
    <i name="e_fr_energy">    -36.90014783 </i>
    <i name="e_wo_entrp">    -36.90014366 </i>
    <i name="e_0_energy">    -36.90014574 </i>
   </energy>
  </scstep>
  <structure>
   <crystal>
    <varray name="basis" >
     <v>       4.26186056       0.00000000       0.00000000 </v>
     <v>       0.00000000       2.50492746       0.00000000 </v>
     <v>       0.00000000       0.00000000      19.74941768 </v>
    </varray>
    <i name="volume">    210.83790140 </i>
    <varray name="rec_basis" >
     <v>       0.23463931       0.00000000       0.00000000 </v>
     <v>       0.00000000       0.39921316       0.00000000 </v>
     <v>       0.00000000       0.00000000       0.05063440 </v>
    </varray>
   </crystal>
   <varray name="positions" >
    <v>       0.00039910       0.00000000      -0.00000000 </v>
    <v>       0.16626757       0.50000000       0.00000000 </v>
    <v>       0.50039910       0.50000000      -0.00000000 </v>
    <v>       0.66626757      -0.00000000       0.00000000 </v>
   </varray>
  </structure>
  <varray name="forces" >
   <v>       0.00000133       0.00000000      -0.00000000 </v>
   <v>      -0.00000133      -0.00000000       0.00000000 </v>
   <v>       0.00000133       0.00000000      -0.00000000 </v>
   <v>      -0.00000133      -0.00000000       0.00000000 </v>
  </varray>
  <varray name="stress" >
   <v>       0.00555458       0.00000000       0.00000000 </v>
   <v>       0.00000000     -25.31602255       0.00000000 </v>
   <v>       0.00000000       0.00000000      -0.01031005 </v>
  </varray>
  <energy>
   <i name="e_fr_energy">    -36.90014783 </i>
   <i name="e_wo_entrp">    -36.90014574 </i>
   <i name="e_0_energy">     -0.00000417 </i>
  </energy>
  <time name="totalsc"> 1510.51 1517.32</time>
 </calculation>
 <calculation>
  <scstep>
   <time name="dav">  268.90  271.28</time>
   <time name="total">  304.81  307.60</time>
   <energy>
    <i name="alphaZ">      6.18334092 </i>
    <i name="ewald">   2502.43222811 </i>
    <i name="hartreedc">  -2996.58716881 </i>
    <i name="XCdc">     57.28993386 </i>
    <i name="pawpsdc">    272.00058431 </i>
    <i name="pawaedc">   -277.12639935 </i>
    <i name="eentropy">     -0.00000417 </i>
    <i name="bandstr">   -189.71618961 </i>
    <i name="atom">    588.62352690 </i>
    <i name="e_fr_energy">    -36.90014783 </i>
    <i name="e_wo_entrp">    -36.90014366 </i>
    <i name="e_0_energy">    -36.90014574 </i>
   </energy>
  </scstep>
  <scstep>
   <time name="diag">   86.28   87.16</time>
   <time name="diis">  143.07  143.49</time>
   <time name="orth">    3.08    3.08</time>
   <time name="total">  268.74  270.16</time>
   <energy>
    <i name="e_fr_energy">    -36.90014783 </i>
    <i name="e_wo_entrp">    -36.90014366 </i>
    <i name="e_0_energy">    -36.90014574 </i>
   </energy>
  </scstep>
  <scstep>
   <time name="diag">   87.10   87.22</time>
   <time name="diis">  141.76  141.98</time>
   <time name="orth">    3.10    3.10</time>
   <time name="total">  268.07  268.65</time>
   <energy>
    <i name="e_fr_energy">    -36.90014783 </i>
    <i name="e_wo_entrp">    -36.90014366 </i>
    <i name="e_0_energy">    -36.90014574 </i>
   </energy>
  </scstep>
  <scstep>
   <time name="diag">   86.63   87.16</time>
   <time name="diis">  145.55  146.35</time>
   <time name="orth">    3.08    3.10</time>
   <time name="total">  271.20  272.98</time>
   <energy>
    <i name="e_fr_energy">    -36.90014783 </i>
    <i name="e_wo_entrp">    -36.90014366 </i>
    <i name="e_0_energy">    -36.90014574 </i>
   </energy>
  </scstep>
  <scstep>
   <time name="diag">   86.58   87.13</time>
   <time name="diis">  136.99  137.74</time>
   <time name="orth">    3.09    3.10</time>
   <time name="total">  262.60  264.47</time>
   <energy>
    <i name="e_fr_energy">    -36.90014783 </i>
    <i name="e_wo_entrp">    -36.90014366 </i>
    <i name="e_0_energy">    -36.90014574 </i>
   </energy>
  </scstep>
  <scstep>
   <time name="diag">   86.71   87.17</time>
   <time name="diis">  144.49  145.96</time>
   <time name="orth">    3.08    3.10</time>
   <time name="total">  236.95  238.90</time>
   <energy>
    <i name="alphaZ">      6.18334092 </i>
    <i name="ewald">   2502.43222811 </i>
    <i name="hartreedc">  -2996.58716923 </i>
    <i name="XCdc">     57.28993388 </i>
    <i name="pawpsdc">    272.00058438 </i>
    <i name="pawaedc">   -277.12639942 </i>
    <i name="eentropy">     -0.00000417 </i>
    <i name="bandstr">   -189.71618921 </i>
    <i name="atom">    588.62352690 </i>
    <i name="e_fr_energy">    -36.90014783 </i>
    <i name="e_wo_entrp">    -36.90014366 </i>
    <i name="e_0_energy">    -36.90014574 </i>
   </energy>
  </scstep>
  <structure>
   <crystal>
    <varray name="basis" >
     <v>       4.26186056       0.00000000       0.00000000 </v>
     <v>       0.00000000       2.50492746       0.00000000 </v>
     <v>       0.00000000       0.00000000      19.74941768 </v>
    </varray>
    <i name="volume">    210.83790140 </i>
    <varray name="rec_basis" >
     <v>       0.23463931       0.00000000       0.00000000 </v>
     <v>       0.00000000       0.39921316       0.00000000 </v>
     <v>       0.00000000       0.00000000       0.05063440 </v>
    </varray>
   </crystal>
   <varray name="positions" >
    <v>       0.00039910       0.00000000      -0.00000000 </v>
    <v>       0.16626757       0.50000000       0.00000000 </v>
    <v>       0.50039910       0.50000000      -0.00000000 </v>
    <v>       0.66626757      -0.00000000       0.00000000 </v>
   </varray>
  </structure>
  <varray name="forces" >
   <v>       0.00000033      -0.00000000       0.00000000 </v>
   <v>      -0.00000033      -0.00000000       0.00000000 </v>
   <v>       0.00000033       0.00000000       0.00000000 </v>
   <v>      -0.00000033      -0.00000000       0.00000000 </v>
  </varray>
  <varray name="stress" >
   <v>       0.00555025       0.00000000       0.00000000 </v>
   <v>       0.00000000     -25.31602143       0.00000000 </v>
   <v>       0.00000000       0.00000000      -0.01030332 </v>
  </varray>
  <energy>
   <i name="e_fr_energy">    -36.90014783 </i>
   <i name="e_wo_entrp">    -36.90014574 </i>
   <i name="e_0_energy">     -0.00000417 </i>
  </energy>
  <time name="totalsc"> 1711.26 1722.72</time>
  <eigenvalues>
   <array>
    <dimension dim="1">band</dimension>
    <dimension dim="2">kpoint</dimension>
    <dimension dim="3">spin</dimension>
    <field>eigene</field>
    <field>occ</field>
    <set>
     <set comment="spin 1">
      <set comment="kpoint 1">
       <r>  -22.1484    1.0000 </r>
       <r>  -16.8265    1.0000 </r>
       <r>  -15.9054    1.0000 </r>
       <r>  -10.2777    1.0000 </r>
       <r>   -9.3586    1.0000 </r>
       <r>   -5.9185    1.0000 </r>
       <r>   -5.7541    1.0000 </r>
       <r>   -4.9841    1.0000 </r>
       <r>   -1.1131    0.0000 </r>
       <r>    0.5365    0.0000 </r>
       <r>    1.3358    0.0000 </r>
       <r>    1.7250    0.0000 </r>
      </set>
      <set comment="kpoint 2">
       <r>  -22.1381    1.0000 </r>
       <r>  -17.0096    1.0000 </r>
       <r>  -15.7071    1.0000 </r>
       <r>  -10.2654    1.0000 </r>
       <r>   -9.3482    1.0000 </r>
       <r>   -5.9417    1.0000 </r>
       <r>   -5.7953    1.0000 </r>
       <r>   -5.0528    1.0000 </r>
       <r>   -1.0292    0.0000 </r>
       <r>    0.5505    0.0000 </r>
       <r>    1.3500    0.0000 </r>
       <r>    1.7394    0.0000 </r>
      </set>
      <set comment="kpoint 3">
       <r>  -22.1071    1.0000 </r>
       <r>  -17.3647    1.0000 </r>
       <r>  -15.3067    1.0000 </r>
       <r>  -10.2285    1.0000 </r>
       <r>   -9.3173    1.0000 </r>
       <r>   -6.0103    1.0000 </r>
       <r>   -5.9173    1.0000 </r>
       <r>   -5.2426    1.0000 </r>
       <r>   -0.7937    0.0000 </r>
       <r>    0.5925    0.0000 </r>
       <r>    1.3924    0.0000 </r>
       <r>    1.7824    0.0000 </r>
      </set>
      <set comment="kpoint 4">
       <r>  -22.0555    1.0000 </r>
       <r>  -17.7515    1.0000 </r>
       <r>  -14.8448    1.0000 </r>
       <r>  -10.1672    1.0000 </r>
       <r>   -9.2659    1.0000 </r>
       <r>   -6.1203    1.0000 </r>
       <r>   -6.1156    1.0000 </r>
       <r>   -5.5179    1.0000 </r>
       <r>   -0.4429    0.0000 </r>
       <r>    0.6625    0.0000 </r>
       <r>    1.4632    0.0000 </r>
       <r>    1.8540    0.0000 </r>
      </set>
      <set comment="kpoint 5">
       <r>  -21.9833    1.0000 </r>
       <r>  -18.1373    1.0000 </r>
       <r>  -14.3545    1.0000 </r>
       <r>  -10.0814    1.0000 </r>
       <r>   -9.1944    1.0000 </r>
       <r>   -6.3836    1.0000 </r>
       <r>   -6.2663    1.0000 </r>
       <r>   -5.8444    1.0000 </r>
       <r>   -0.0119    0.0000 </r>
       <r>    0.7605    0.0000 </r>
       <r>    1.5622    0.0000 </r>
       <r>    1.9543    0.0000 </r>
      </set>
      <set comment="kpoint 6">
       <r>  -21.8905    1.0000 </r>
       <r>  -18.5127    1.0000 </r>
       <r>  -13.8459    1.0000 </r>
       <r>   -9.9714    1.0000 </r>
       <r>   -9.1030    1.0000 </r>
       <r>   -6.7131    1.0000 </r>
       <r>   -6.4416    1.0000 </r>
       <r>   -6.1970    1.0000 </r>
       <r>    0.4729    0.0000 </r>
       <r>    0.8864    0.0000 </r>
       <r>    1.6895    0.0000 </r>
       <r>    2.0833    0.0000 </r>
      </set>
      <set comment="kpoint 7">
       <r>  -21.7773    1.0000 </r>
       <r>  -18.8738    1.0000 </r>
       <r>  -13.3236    1.0000 </r>
       <r>   -9.8374    1.0000 </r>
       <r>   -8.9923    1.0000 </r>
       <r>   -7.0953    1.0000 </r>
       <r>   -6.6395    1.0000 </r>
       <r>   -6.5595    1.0000 </r>
       <r>    0.9936    0.0000 </r>
       <r>    1.0403    0.0000 </r>
       <r>    1.8450    0.0000 </r>
       <r>    2.2410    0.0000 </r>
      </set>
      <set comment="kpoint 8">
       <r>  -21.6437    1.0000 </r>
       <r>  -19.2188    1.0000 </r>
       <r>  -12.7908    1.0000 </r>
       <r>   -9.6795    1.0000 </r>
       <r>   -8.8629    1.0000 </r>
       <r>   -7.5217    1.0000 </r>
       <r>   -6.9213    1.0000 </r>
       <r>   -6.8532    1.0000 </r>
       <r>    1.2222    0.0000 </r>
       <r>    1.5377    0.0000 </r>
       <r>    2.0286    0.0000 </r>
       <r>    2.4273    0.0000 </r>
      </set>
      <set comment="kpoint 9">
       <r>  -21.4897    1.0000 </r>
       <r>  -19.5466    1.0000 </r>
       <r>  -12.2498    1.0000 </r>
       <r>   -9.4980    1.0000 </r>
       <r>   -8.7156    1.0000 </r>
       <r>   -7.9840    1.0000 </r>
       <r>   -7.2758    1.0000 </r>
       <r>   -7.0767    1.0000 </r>
       <r>    1.4319    0.0000 </r>
       <r>    2.0956    0.0000 </r>
       <r>    2.2402    0.0000 </r>
       <r>    2.6423    0.0000 </r>
      </set>
      <set comment="kpoint 10">
       <r>  -21.3156    1.0000 </r>
       <r>  -19.8564    1.0000 </r>
       <r>  -11.7032    1.0000 </r>
       <r>   -9.2935    1.0000 </r>
       <r>   -8.5515    1.0000 </r>
       <r>   -8.4748    1.0000 </r>
       <r>   -7.6183    1.0000 </r>
       <r>   -7.3045    1.0000 </r>
       <r>    1.6695    0.0000 </r>
       <r>    2.4797    0.0000 </r>
       <r>    2.6591    0.0000 </r>
       <r>    2.8858    0.0000 </r>
      </set>
      <set comment="kpoint 11">
       <r>  -21.1214    1.0000 </r>
       <r>  -20.1478    1.0000 </r>
[...]
       <r>   -9.0842    1.0000 </r>
       <r>   -5.6380    1.0000 </r>
       <r>   -5.6380    1.0000 </r>
       <r>   -0.5155    0.0000 </r>
       <r>   -0.5155    0.0000 </r>
       <r>    4.8231    0.0000 </r>
       <r>    4.8231    0.0000 </r>
      </set>
      <set comment="kpoint 209">
       <r>  -18.8401    1.0000 </r>
       <r>  -17.1132    1.0000 </r>
       <r>  -13.9339    1.0000 </r>
       <r>  -12.3543    1.0000 </r>
       <r>  -12.3508    1.0000 </r>
       <r>  -10.8642    1.0000 </r>
       <r>   -6.4689    1.0000 </r>
       <r>   -4.6339    1.0000 </r>
       <r>   -0.9925    0.0000 </r>
       <r>    1.1053    0.0000 </r>
       <r>    5.1151    0.0000 </r>
       <r>    5.9041    0.0000 </r>
      </set>
      <set comment="kpoint 210">
       <r>  -18.8303    1.0000 </r>
       <r>  -17.1056    1.0000 </r>
       <r>  -14.0240    1.0000 </r>
       <r>  -12.4351    1.0000 </r>
       <r>  -12.2560    1.0000 </r>
       <r>  -10.7817    1.0000 </r>
       <r>   -6.4601    1.0000 </r>
       <r>   -4.6363    1.0000 </r>
       <r>   -1.0031    0.0000 </r>
       <r>    1.0795    0.0000 </r>
       <r>    5.1288    0.0000 </r>
       <r>    5.9203    0.0000 </r>
      </set>
      <set comment="kpoint 211">
       <r>  -18.8011    1.0000 </r>
       <r>  -17.0832    1.0000 </r>
       <r>  -14.2455    1.0000 </r>
       <r>  -12.6461    1.0000 </r>
       <r>  -12.0100    1.0000 </r>
       <r>  -10.5769    1.0000 </r>
       <r>   -6.4337    1.0000 </r>
       <r>   -4.6439    1.0000 </r>
       <r>   -1.0331    0.0000 </r>
       <r>    1.0039    0.0000 </r>
       <r>    5.1698    0.0000 </r>
       <r>    5.9684    0.0000 </r>
      </set>
      <set comment="kpoint 212">
       <r>  -18.7526    1.0000 </r>
       <r>  -17.0474    1.0000 </r>
       <r>  -14.5253    1.0000 </r>
       <r>  -12.9200    1.0000 </r>
       <r>  -11.6893    1.0000 </r>
       <r>  -10.3155    1.0000 </r>
       <r>   -6.3901    1.0000 </r>
       <r>   -4.6583    1.0000 </r>
       <r>   -1.0771    0.0000 </r>
       <r>    0.8840    0.0000 </r>
       <r>    5.2378    0.0000 </r>
       <r>    6.0473    0.0000 </r>
      </set>
      <set comment="kpoint 213">
       <r>  -18.6848    1.0000 </r>
       <r>  -17.0008    1.0000 </r>
       <r>  -14.8209    1.0000 </r>
       <r>  -13.2194    1.0000 </r>
       <r>  -11.3364    1.0000 </r>
       <r>  -10.0384    1.0000 </r>
       <r>   -6.3297    1.0000 </r>
       <r>   -4.6818    1.0000 </r>
       <r>   -1.1274    0.0000 </r>
       <r>    0.7276    0.0000 </r>
       <r>    5.3318    0.0000 </r>
       <r>    6.1558    0.0000 </r>
      </set>
      <set comment="kpoint 214">
       <r>  -18.5980    1.0000 </r>
       <r>  -16.9484    1.0000 </r>
       <r>  -15.1085    1.0000 </r>
       <r>  -13.5263    1.0000 </r>
       <r>  -10.9730    1.0000 </r>
       <r>   -9.7683    1.0000 </r>
       <r>   -6.2534    1.0000 </r>
       <r>   -4.7173    1.0000 </r>
       <r>   -1.1745    0.0000 </r>
       <r>    0.5436    0.0000 </r>
       <r>    5.4481    0.0000 </r>
       <r>    6.1811    0.0000 </r>
      </set>
      <set comment="kpoint 215">
       <r>  -18.4926    1.0000 </r>
       <r>  -16.9002    1.0000 </r>
       <r>  -15.3694    1.0000 </r>
       <r>  -13.8311    1.0000 </r>
       <r>  -10.6127    1.0000 </r>
       <r>   -9.5205    1.0000 </r>
       <r>   -6.1622    1.0000 </r>
       <r>   -4.7676    1.0000 </r>
       <r>   -1.2092    0.0000 </r>
       <r>    0.3412    0.0000 </r>
       <r>    5.5427    0.0000 </r>
       <r>    5.7920    0.0000 </r>
      </set>
      <set comment="kpoint 216">
       <r>  -18.3691    1.0000 </r>
       <r>  -16.8742    1.0000 </r>
       <r>  -15.5805    1.0000 </r>
       <r>  -14.1282    1.0000 </r>
       <r>  -10.2660    1.0000 </r>
       <r>   -9.3072    1.0000 </r>
       <r>   -6.0573    1.0000 </r>
       <r>   -4.8348    1.0000 </r>
       <r>   -1.2229    0.0000 </r>
       <r>    0.1287    0.0000 </r>
       <r>    5.3062    0.0000 </r>
       <r>    5.8254    0.0000 </r>
      </set>
      <set comment="kpoint 217">
       <r>  -18.2282    1.0000 </r>
       <r>  -16.8972    1.0000 </r>
       <r>  -15.7122    1.0000 </r>
       <r>  -14.4136    1.0000 </r>
       <r>   -9.9424    1.0000 </r>
       <r>   -9.1390    1.0000 </r>
       <r>   -5.9406    1.0000 </r>
       <r>   -4.9197    1.0000 </r>
       <r>   -1.2093    0.0000 </r>
       <r>   -0.0861    0.0000 </r>
       <r>    5.0124    0.0000 </r>
       <r>    5.8351    0.0000 </r>
      </set>
      <set comment="kpoint 218">
       <r>  -18.0708    1.0000 </r>
       <r>  -16.9892    1.0000 </r>
       <r>  -15.7426    1.0000 </r>
       <r>  -14.6844    1.0000 </r>
       <r>   -9.6512    1.0000 </r>
       <r>   -9.0248    1.0000 </r>
       <r>   -5.8139    1.0000 </r>
       <r>   -5.0218    1.0000 </r>
       <r>   -1.1647    0.0000 </r>
       <r>   -0.2964    0.0000 </r>
       <r>    4.7944    0.0000 </r>
       <r>    5.4360    0.0000 </r>
      </set>
      <set comment="kpoint 219">
       <r>  -17.8985    1.0000 </r>
       <r>  -17.1407    1.0000 </r>
       <r>  -15.6802    1.0000 </r>
       <r>  -14.9376    1.0000 </r>
       <r>   -9.4017    1.0000 </r>
       <r>   -8.9716    1.0000 </r>
       <r>   -5.6800    1.0000 </r>
       <r>   -5.1388    1.0000 </r>
       <r>   -1.0878    0.0000 </r>
       <r>   -0.4960    0.0000 </r>
       <r>    4.6666    0.0000 </r>
       <r>    5.1074    0.0000 </r>
      </set>
      <set comment="kpoint 220">
       <r>  -17.7137    1.0000 </r>
       <r>  -17.3249    1.0000 </r>
       <r>  -15.5511    1.0000 </r>
       <r>  -15.1699    1.0000 </r>
       <r>   -9.2025    1.0000 </r>
       <r>   -8.9834    1.0000 </r>
       <r>   -5.5418    1.0000 </r>
       <r>   -5.2671    1.0000 </r>
       <r>   -0.9794    0.0000 </r>
       <r>   -0.6796    0.0000 </r>
       <r>    4.6345    0.0000 </r>
       <r>    4.8592    0.0000 </r>
      </set>
      <set comment="kpoint 221">
       <r>  -17.5202    1.0000 </r>
       <r>  -17.5202    1.0000 </r>
       <r>  -15.3768    1.0000 </r>
       <r>  -15.3768    1.0000 </r>
       <r>   -9.0613    1.0000 </r>
       <r>   -9.0613    1.0000 </r>
       <r>   -5.4029    1.0000 </r>
       <r>   -5.4029    1.0000 </r>
       <r>   -0.8421    0.0000 </r>
       <r>   -0.8421    0.0000 </r>
       <r>    4.6996    0.0000 </r>
       <r>    4.6996    0.0000 </r>
      </set>
      <set comment="kpoint 222">
       <r>  -18.4316    1.0000 </r>
       <r>  -17.5644    1.0000 </r>
       <r>  -13.5674    1.0000 </r>
       <r>  -12.7750    1.0000 </r>
       <r>  -12.0157    1.0000 </r>
       <r>  -11.2660    1.0000 </r>
       <r>   -6.0230    1.0000 </r>
       <r>   -5.1005    1.0000 </r>
       <r>   -0.5004    0.0000 </r>
       <r>    0.5505    0.0000 </r>
       <r>    5.6960    0.0000 </r>
       <r>    6.4515    0.0000 </r>
      </set>
      <set comment="kpoint 223">
       <r>  -18.4221    1.0000 </r>
       <r>  -17.5557    1.0000 </r>
       <r>  -13.6579    1.0000 </r>
       <r>  -12.8621    1.0000 </r>
       <r>  -11.9197    1.0000 </r>
       <r>  -11.1782    1.0000 </r>
       <r>   -6.0155    1.0000 </r>
       <r>   -5.0979    1.0000 </r>
       <r>   -0.5173    0.0000 </r>
       <r>    0.5267    0.0000 </r>
       <r>    5.7096    0.0000 </r>
       <r>    6.4685    0.0000 </r>
      </set>
      <set comment="kpoint 224">
       <r>  -18.3934    1.0000 </r>
       <r>  -17.5298    1.0000 </r>
       <r>  -13.8810    1.0000 </r>
       <r>  -13.0786    1.0000 </r>
       <r>  -11.6805    1.0000 </r>
       <r>  -10.9602    1.0000 </r>
       <r>   -5.9930    1.0000 </r>
       <r>   -5.0905    1.0000 </r>
       <r>   -0.5661    0.0000 </r>
       <r>    0.4571    0.0000 </r>
       <r>    5.7504    0.0000 </r>
       <r>    6.5190    0.0000 </r>
      </set>
      <set comment="kpoint 225">
       <r>  -18.3459    1.0000 </r>
       <r>  -17.4872    1.0000 </r>
       <r>  -14.1652    1.0000 </r>
       <r>  -13.3579    1.0000 </r>
       <r>  -11.3707    1.0000 </r>
       <r>  -10.6804    1.0000 </r>
       <r>   -5.9561    1.0000 </r>
       <r>   -5.0794    1.0000 </r>
       <r>   -0.6416    0.0000 </r>
       <r>    0.3472    0.0000 </r>
       <r>    5.8178    0.0000 </r>
       <r>    6.6015    0.0000 </r>
      </set>
      <set comment="kpoint 226">
       <r>  -18.2797    1.0000 </r>
       <r>  -17.4288    1.0000 </r>
       <r>  -14.4698    1.0000 </r>
       <r>  -13.6615    1.0000 </r>
       <r>  -11.0325    1.0000 </r>
       <r>  -10.3803    1.0000 </r>
       <r>   -5.9056    1.0000 </r>
       <r>   -5.0665    1.0000 </r>
       <r>   -0.7357    0.0000 </r>
       <r>    0.2046    0.0000 </r>
       <r>    5.9102    0.0000 </r>
       <r>    6.7142    0.0000 </r>
      </set>
      <set comment="kpoint 227">
       <r>  -18.1952    1.0000 </r>
       <r>  -17.3566    1.0000 </r>
       <r>  -14.7750    1.0000 </r>
       <r>  -13.9710    1.0000 </r>
       <r>  -10.6879    1.0000 </r>
       <r>  -10.0824    1.0000 </r>
       <r>   -5.8426    1.0000 </r>
       <r>   -5.0542    1.0000 </r>
       <r>   -0.8388    0.0000 </r>
       <r>    0.0384    0.0000 </r>
       <r>    6.0160    0.0000 </r>
       <r>    6.4533    0.0000 </r>
      </set>
      <set comment="kpoint 228">
       <r>  -18.0930    1.0000 </r>
       <r>  -17.2734    1.0000 </r>
       <r>  -15.0685    1.0000 </r>
       <r>  -14.2767    1.0000 </r>
       <r>  -10.3508    1.0000 </r>
       <r>   -9.8016    1.0000 </r>
       <r>   -5.7686    1.0000 </r>
       <r>   -5.0458    1.0000 </r>
       <r>   -0.9407    0.0000 </r>
       <r>   -0.1419    0.0000 </r>
       <r>    5.9001    0.0000 </r>
       <r>    6.2409    0.0000 </r>
      </set>
      <set comment="kpoint 229">
       <r>  -17.9740    1.0000 </r>
       <r>  -17.1851    1.0000 </r>
       <r>  -15.3398    1.0000 </r>
       <r>  -14.5728    1.0000 </r>
       <r>  -10.0321    1.0000 </r>
       <r>   -9.5497    1.0000 </r>
       <r>   -5.6857    1.0000 </r>
       <r>   -5.0448    1.0000 </r>
       <r>   -1.0312    0.0000 </r>
       <r>   -0.3274    0.0000 </r>
       <r>    5.5057    0.0000 </r>
       <r>    5.9986    0.0000 </r>
      </set>
      <set comment="kpoint 230">
       <r>  -17.8396    1.0000 </r>
       <r>  -17.1022    1.0000 </r>
       <r>  -15.5755    1.0000 </r>
       <r>  -14.8547    1.0000 </r>
       <r>   -9.7419    1.0000 </r>
       <r>   -9.3373    1.0000 </r>
       <r>   -5.5964    1.0000 </r>
       <r>   -5.0546    1.0000 </r>
       <r>   -1.1012    0.0000 </r>
       <r>   -0.5095    0.0000 </r>
       <r>    5.1589    0.0000 </r>
       <r>    5.5718    0.0000 </r>
      </set>
      <set comment="kpoint 231">
       <r>  -17.6919    1.0000 </r>
       <r>  -17.0438    1.0000 </r>
       <r>  -15.7545    1.0000 </r>
       <r>  -15.1184    1.0000 </r>
       <r>   -9.4896    1.0000 </r>
       <r>   -9.1740    1.0000 </r>
       <r>   -5.5036    1.0000 </r>
       <r>   -5.0782    1.0000 </r>
       <r>   -1.1431    0.0000 </r>
       <r>   -0.6805    0.0000 </r>
       <r>    4.8886    0.0000 </r>
       <r>    5.2112    0.0000 </r>
      </set>
      <set comment="kpoint 232">
       <r>  -17.5346    1.0000 </r>
       <r>  -17.0375    1.0000 </r>
       <r>  -15.8481    1.0000 </r>
       <r>  -15.3588    1.0000 </r>
       <r>   -9.2846    1.0000 </r>
       <r>   -9.0677    1.0000 </r>
       <r>   -5.4109    1.0000 </r>
       <r>   -5.1173    1.0000 </r>
       <r>   -1.1515    0.0000 </r>
       <r>   -0.8332    0.0000 </r>
       <r>    4.7055    0.0000 </r>
       <r>    4.9274    0.0000 </r>
      </set>
      <set comment="kpoint 233">
       <r>  -17.3743    1.0000 </r>
       <r>  -17.1014    1.0000 </r>
       <r>  -15.8377    1.0000 </r>
       <r>  -15.5686    1.0000 </r>
       <r>   -9.1349    1.0000 </r>
       <r>   -9.0244    1.0000 </r>
       <r>   -5.3222    1.0000 </r>
       <r>   -5.1722    1.0000 </r>
       <r>   -1.1237    0.0000 </r>
       <r>   -0.9614    0.0000 </r>
       <r>    4.6164    0.0000 </r>
       <r>    4.7296    0.0000 </r>
      </set>
      <set comment="kpoint 234">
       <r>  -17.2228    1.0000 </r>
       <r>  -17.2228    1.0000 </r>
       <r>  -15.7354    1.0000 </r>
       <r>  -15.7354    1.0000 </r>
       <r>   -9.0469    1.0000 </r>
       <r>   -9.0469    1.0000 </r>
       <r>   -5.2414    1.0000 </r>
       <r>   -5.2414    1.0000 </r>
       <r>   -1.0596    0.0000 </r>
       <r>   -1.0596    0.0000 </r>
       <r>    4.6246    0.0000 </r>
       <r>    4.6246    0.0000 </r>
      </set>
      <set comment="kpoint 235">
       <r>  -18.0054    1.0000 </r>
       <r>  -18.0054    1.0000 </r>
       <r>  -13.1808    1.0000 </r>
       <r>  -13.1808    1.0000 </r>
       <r>  -11.6512    1.0000 </r>
       <r>  -11.6512    1.0000 </r>
       <r>   -5.5654    1.0000 </r>
       <r>   -5.5654    1.0000 </r>
       <r>    0.0145    0.0000 </r>
       <r>    0.0145    0.0000 </r>
       <r>    6.3067    0.0000 </r>
       <r>    6.3067    0.0000 </r>
      </set>
      <set comment="kpoint 236">
       <r>  -17.9961    1.0000 </r>
       <r>  -17.9961    1.0000 </r>
       <r>  -13.2701    1.0000 </r>
       <r>  -13.2701    1.0000 </r>
       <r>  -11.5589    1.0000 </r>
       <r>  -11.5589    1.0000 </r>
       <r>   -5.5598    1.0000 </r>
       <r>   -5.5598    1.0000 </r>
       <r>   -0.0065    0.0000 </r>
       <r>   -0.0065    0.0000 </r>
       <r>    6.3202    0.0000 </r>
       <r>    6.3202    0.0000 </r>
      </set>
      <set comment="kpoint 237">
       <r>  -17.9685    1.0000 </r>
       <r>  -17.9685    1.0000 </r>
       <r>  -13.4910    1.0000 </r>
       <r>  -13.4910    1.0000 </r>
       <r>  -11.3292    1.0000 </r>
       <r>  -11.3292    1.0000 </r>
       <r>   -5.5432    1.0000 </r>
       <r>   -5.5432    1.0000 </r>
       <r>   -0.0676    0.0000 </r>
       <r>   -0.0676    0.0000 </r>
       <r>    6.3607    0.0000 </r>
       <r>    6.3607    0.0000 </r>
      </set>
      <set comment="kpoint 238">
       <r>  -17.9226    1.0000 </r>
       <r>  -17.9226    1.0000 </r>
       <r>  -13.7740    1.0000 </r>
       <r>  -13.7740    1.0000 </r>
       <r>  -11.0332    1.0000 </r>
       <r>  -11.0332    1.0000 </r>
       <r>   -5.5164    1.0000 </r>
       <r>   -5.5164    1.0000 </r>
       <r>   -0.1635    0.0000 </r>
       <r>   -0.1635    0.0000 </r>
       <r>    6.4273    0.0000 </r>
       <r>    6.4273    0.0000 </r>
      </set>
      <set comment="kpoint 239">
       <r>  -17.8591    1.0000 </r>
       <r>  -17.8591    1.0000 </r>
       <r>  -14.0799    1.0000 </r>
       <r>  -14.0799    1.0000 </r>
       <r>  -10.7127    1.0000 </r>
       <r>  -10.7127    1.0000 </r>
       <r>   -5.4806    1.0000 </r>
       <r>   -5.4806    1.0000 </r>
       <r>   -0.2865    0.0000 </r>
       <r>   -0.2865    0.0000 </r>
       <r>    6.5165    0.0000 </r>
       <r>    6.5165    0.0000 </r>
      </set>
      <set comment="kpoint 240">
       <r>  -17.7786    1.0000 </r>
       <r>  -17.7786    1.0000 </r>
       <r>  -14.3897    1.0000 </r>
       <r>  -14.3897    1.0000 </r>
       <r>  -10.3899    1.0000 </r>
       <r>  -10.3899    1.0000 </r>
       <r>   -5.4376    1.0000 </r>
       <r>   -5.4376    1.0000 </r>
       <r>   -0.4272    0.0000 </r>
       <r>   -0.4272    0.0000 </r>
       <r>    6.5702    0.0000 </r>
       <r>    6.5702    0.0000 </r>
      </set>
      <set comment="kpoint 241">
       <r>  -17.6824    1.0000 </r>
       <r>  -17.6824    1.0000 </r>
       <r>  -14.6932    1.0000 </r>
       <r>  -14.6932    1.0000 </r>
       <r>  -10.0793    1.0000 </r>
       <r>  -10.0793    1.0000 </r>
       <r>   -5.3896    1.0000 </r>
       <r>   -5.3896    1.0000 </r>
       <r>   -0.5757    0.0000 </r>
       <r>   -0.5757    0.0000 </r>
       <r>    6.1820    0.0000 </r>
       <r>    6.1820    0.0000 </r>
      </set>
      <set comment="kpoint 242">
       <r>  -17.5725    1.0000 </r>
       <r>  -17.5725    1.0000 </r>
       <r>  -14.9834    1.0000 </r>
       <r>  -14.9834    1.0000 </r>
       <r>   -9.7923    1.0000 </r>
       <r>   -9.7923    1.0000 </r>
       <r>   -5.3396    1.0000 </r>
       <r>   -5.3396    1.0000 </r>
       <r>   -0.7223    0.0000 </r>
       <r>   -0.7223    0.0000 </r>
       <r>    5.7355    0.0000 </r>
       <r>    5.7355    0.0000 </r>
      </set>
      <set comment="kpoint 243">
       <r>  -17.4521    1.0000 </r>
       <r>  -17.4521    1.0000 </r>
       <r>  -15.2541    1.0000 </r>
       <r>  -15.2541    1.0000 </r>
       <r>   -9.5392    1.0000 </r>
       <r>   -9.5392    1.0000 </r>
       <r>   -5.2911    1.0000 </r>
       <r>   -5.2911    1.0000 </r>
       <r>   -0.8576    0.0000 </r>
       <r>   -0.8576    0.0000 </r>
       <r>    5.3457    0.0000 </r>
       <r>    5.3457    0.0000 </r>
      </set>
      <set comment="kpoint 244">
       <r>  -17.3275    1.0000 </r>
       <r>  -17.3275    1.0000 </r>
       <r>  -15.4971    1.0000 </r>
       <r>  -15.4971    1.0000 </r>
       <r>   -9.3297    1.0000 </r>
       <r>   -9.3297    1.0000 </r>
       <r>   -5.2477    1.0000 </r>
       <r>   -5.2477    1.0000 </r>
       <r>   -0.9733    0.0000 </r>
       <r>   -0.9733    0.0000 </r>
       <r>    5.0280    0.0000 </r>
       <r>    5.0280    0.0000 </r>
      </set>
      <set comment="kpoint 245">
       <r>  -17.2099    1.0000 </r>
       <r>  -17.2099    1.0000 </r>
       <r>  -15.7000    1.0000 </r>
       <r>  -15.7000    1.0000 </r>
       <r>   -9.1726    1.0000 </r>
       <r>   -9.1726    1.0000 </r>
       <r>   -5.2132    1.0000 </r>
       <r>   -5.2132    1.0000 </r>
       <r>   -1.0619    0.0000 </r>
       <r>   -1.0619    0.0000 </r>
       <r>    4.7928    0.0000 </r>
       <r>    4.7928    0.0000 </r>
      </set>
      <set comment="kpoint 246">
       <r>  -17.1196    1.0000 </r>
       <r>  -17.1196    1.0000 </r>
       <r>  -15.8419    1.0000 </r>
       <r>  -15.8419    1.0000 </r>
       <r>   -9.0751    1.0000 </r>
       <r>   -9.0751    1.0000 </r>
       <r>   -5.1910    1.0000 </r>
       <r>   -5.1910    1.0000 </r>
       <r>   -1.1175    0.0000 </r>
       <r>   -1.1175    0.0000 </r>
       <r>    4.6482    0.0000 </r>
       <r>    4.6482    0.0000 </r>
      </set>
      <set comment="kpoint 247">
       <r>  -17.0843    1.0000 </r>
       <r>  -17.0843    1.0000 </r>
       <r>  -15.8943    1.0000 </r>
       <r>  -15.8943    1.0000 </r>
       <r>   -9.0421    1.0000 </r>
       <r>   -9.0421    1.0000 </r>
       <r>   -5.1833    1.0000 </r>
       <r>   -5.1833    1.0000 </r>
       <r>   -1.1365    0.0000 </r>
       <r>   -1.1365    0.0000 </r>
       <r>    4.5994    0.0000 </r>
       <r>    4.5994    0.0000 </r>
      </set>
     </set>
    </set>
   </array>
  </eigenvalues>
  <separator name="orbital magnetization" >
   <v name="MAGDIPOLOUT">      0.00000000      0.00000000      0.00000000</v>
  </separator>
 </calculation>
 <structure name="finalpos" >
  <crystal>
   <varray name="basis" >
    <v>       4.26186056       0.00000000       0.00000000 </v>
    <v>       0.00000000       2.50492746       0.00000000 </v>
    <v>       0.00000000       0.00000000      19.74941768 </v>
   </varray>
   <i name="volume">    210.83790140 </i>
   <varray name="rec_basis" >
    <v>       0.23463931       0.00000000       0.00000000 </v>
    <v>       0.00000000       0.39921316       0.00000000 </v>
    <v>       0.00000000       0.00000000       0.05063440 </v>
   </varray>
  </crystal>
  <varray name="positions" >
   <v>       0.00039910       0.00000000      -0.00000000 </v>
   <v>       0.16626757       0.50000000       0.00000000 </v>
   <v>       0.50039910       0.50000000      -0.00000000 </v>
   <v>       0.66626757      -0.00000000       0.00000000 </v>
  </varray>
 </structure>
</modeling>
