gr                                      
           1
     4.261861    0.000000    0.000000
     0.000000    2.504927    0.000000
     0.000000    0.000000   19.749418
   C 
   4
Direct configuration=     1
   0.00039382  0.00000000  0.00000000
   0.16627284  0.50000000  0.00000000
   0.50039382  0.50000000  0.00000000
   0.66627284  0.00000000  0.00000000
Direct configuration=     2
   0.00042060  0.00000000 -0.00000000
   0.16624606  0.50000000  0.00000000
   0.50042060  0.50000000 -0.00000000
   0.66624606 -0.00000000  0.00000000
Direct configuration=     3
   0.00039910  0.00000000 -0.00000000
   0.16626756  0.50000000  0.00000000
   0.50039910  0.50000000 -0.00000000
   0.66626756 -0.00000000  0.00000000
Direct configuration=     4
   0.00039909  0.00000000 -0.00000000
   0.16626757  0.50000000  0.00000000
   0.50039909  0.50000000 -0.00000000
   0.66626757 -0.00000000  0.00000000
Direct configuration=     5
   0.00039910  0.00000000 -0.00000000
   0.16626757  0.50000000  0.00000000
   0.50039910  0.50000000 -0.00000000
   0.66626757 -0.00000000  0.00000000
Direct configuration=     6
   0.00039910  0.00000000 -0.00000000
   0.16626757  0.50000000  0.00000000
   0.50039910  0.50000000 -0.00000000
   0.66626757 -0.00000000  0.00000000
