    4    4  400    1
  0.5270948E+02  0.4258542E-09  0.2516771E-09  0.1967180E-08  0.5000000E-15
  1.000000000000000E-004
  CAR 
 gr                                      
     16    247     12
 
  0.0000000E+00  0.0000000E+00  0.0000000E+00  0.1157407E-02
    1      -22.115428
    2      -16.766450
    3      -15.884978
    4      -10.252209
    5       -9.416477
    6       -5.955498
    7       -5.747303
    8       -4.945176
    9       -1.127134
   10        0.540504
   11        1.339236
   12        1.730485
 
  0.4166667E-01  0.0000000E+00  0.0000000E+00  0.2314815E-02
    1      -22.105078
    2      -16.955849
    3      -15.680514
    4      -10.239911
    5       -9.406108
    6       -5.978999
    7       -5.788002
    8       -5.014568
    9       -1.042695
   10        0.554531
   11        1.353412
   12        1.744839
 
  0.8333333E-01  0.0000000E+00  0.0000000E+00  0.2314815E-02
    1      -22.074033
    2      -17.316594
    3      -15.274661
    4      -10.203035
    5       -9.375052
    6       -6.048157
    7       -5.908584
    8       -5.206050
    9       -0.806252
   10        0.596611
   11        1.395938
   12        1.787903
 
  0.1250000E+00  0.0000000E+00  0.0000000E+00  0.2314815E-02
    1      -22.022313
    2      -17.706431
    3      -14.809955
    4      -10.141637
    5       -9.323459
    6       -6.159172
    7       -6.104742
    8       -5.483284
    9       -0.454671
   10        0.666740
   11        1.466802
   12        1.859676
 
  0.1666667E+00  0.0000000E+00  0.0000000E+00  0.2314815E-02
    1      -21.949950
    2      -18.094157
    3      -14.318065
    4      -10.055815
    5       -9.251588
    6       -6.369972
    7       -6.306416
    8       -5.811443
    9       -0.023671
   10        0.764910
   11        1.565984
   12        1.960158
 
  0.2083333E+00  0.0000000E+00  0.0000000E+00  0.2314815E-02
    1      -21.856997
    2      -18.470901
    3      -13.808549
    4       -9.945710
    5       -9.159810
    6       -6.696378
    7       -6.483223
    8       -6.165444
    9        0.460406
   10        0.891109
   11        1.693453
   12        2.089346
 
  0.2500000E+00  0.0000000E+00  0.0000000E+00  0.2314815E-02
    1      -21.743516
    2      -18.833137
    3      -13.285826
    4       -9.811509
    5       -9.048625
    6       -7.075456
    7       -6.682616
    8       -6.528995
    9        0.979623
   10        1.045315
   11        1.849166
   12        2.247239
 
  0.2916667E+00  0.0000000E+00  0.0000000E+00  0.2314815E-02
    1      -21.609588
    2      -19.179096
    3      -12.752810
    4       -9.653455
    5       -8.918676
    6       -7.498720
    7       -6.897873
    8       -6.891708
    9        1.227495
   10        1.521522
   11        2.033055
   12        2.433832
 
  0.3333333E+00  0.0000000E+00  0.0000000E+00  0.2314815E-02
    1      -21.455309
    2      -19.507725
    3      -12.211968
    4       -9.471855
    5       -8.770770
    6       -7.958130
    7       -7.246842
    8       -7.122855
    9        1.437606
   10        2.076753
   11        2.245021
   12        2.649116
 
  0.3750000E+00  0.0000000E+00  0.0000000E+00  0.2314815E-02
    1      -21.280793
    2      -19.818321
    3      -11.665734
    4       -9.267094
    5       -8.605909
    6       -8.446341
    7       -7.589879
    8       -7.352165
    9        1.675587
   10        2.484893
   11        2.637218
   12        2.893075
 
  0.4166667E+00  0.0000000E+00  0.0000000E+00  0.2314815E-02
    1      -21.086176
    2      -20.110370
    3      -11.116702
    4       -9.039649
    5       -8.956802
    6       -8.425324
    7       -7.917691
    8       -7.581175
    9        1.941351
   10        2.752334
   11        3.165680
   12        3.192217
 
  0.4583333E+00  0.0000000E+00  0.0000000E+00  0.2314815E-02
    1      -20.871618
    2      -20.383471
    3      -10.567760
    4       -9.483755
    5       -8.790120
    6       -8.230520
    7       -8.228036
    8       -7.805982
    9        2.234775
   10        2.903601
   11        3.046460
   12        3.467120
 
  0.5000000E+00  0.0000000E+00  0.0000000E+00  0.1157407E-02
    1      -20.637309
    2      -20.637309
    3      -10.022189
    4      -10.022189
    5       -8.519261
    6       -8.519261
    7       -8.023330
    8       -8.023330
    9        2.555655
   10        2.555655
   11        3.363393
   12        3.363393
 
  0.0000000E+00  0.2777778E-01  0.0000000E+00  0.2314815E-02
    1      -22.102290
    2      -16.755123
    3      -15.874354
    4      -10.236597
    5       -9.475318
    6       -6.009669
    7       -5.779131
    8       -4.929255
    9       -1.132872
   10        0.558283
   11        1.357268
   12        1.748741
 
  0.4166667E-01  0.2777778E-01  0.0000000E+00  0.4629630E-02
    1      -22.091941
    2      -16.944403
    3      -15.670069
    4      -10.224303
    5       -9.464922
    6       -6.036484
    7       -5.815795
    8       -4.998818
    9       -1.048391
   10        0.572311
   11        1.371443
   12        1.763095
 
  0.8333333E-01  0.2777778E-01  0.0000000E+00  0.4629630E-02
    1      -22.060900
    2      -17.304935
    3      -15.264610
    4      -10.187440
    5       -9.433780
    6       -6.117366
    7       -5.922620
    8       -5.190683
    9       -0.811953
   10        0.614394
   11        1.413966
   12        1.806160
 
  0.1250000E+00  0.2777778E-01  0.0000000E+00  0.4629630E-02
    1      -22.009186
    2      -17.694563
    3      -14.800421
    4      -10.126065
    5       -9.382040
    6       -6.256820
    7       -6.087337
    8       -5.468298
    9       -0.460639
   10        0.684530
   11        1.484824
   12        1.877934
 
  0.1666667E+00  0.2777778E-01  0.0000000E+00  0.4629630E-02
    1      -21.936835
    2      -18.082103
    3      -14.309166
    4      -10.040274
    5       -9.309950
    6       -6.469862
    7       -6.283225
    8       -5.796727
    9       -0.030279
   10        0.782709
   11        1.583999
   12        1.978418
 
  0.2083333E+00  0.2777778E-01  0.0000000E+00  0.4629630E-02
    1      -21.843896
    2      -18.458684
    3      -13.800419
    4       -9.930209
    5       -9.217869
    6       -6.764095
    7       -6.488512
    8       -6.150876
    9        0.452774
   10        0.908919
   11        1.711459
   12        2.107608
 
  0.2500000E+00  0.2777778E-01  0.0000000E+00  0.4629630E-02
    1      -21.730432
    2      -18.820779
    3      -13.278626
    4       -9.796058
    5       -9.106278
    6       -7.124221
    7       -6.703312
    8       -6.514478
    9        0.970616
   10        1.063137
   11        1.867161
   12        2.265505
 
  0.2916667E+00  0.2777778E-01  0.0000000E+00  0.4629630E-02
    1      -21.596525
    2      -19.166616
    3      -12.746735
    4       -9.638062
    5       -8.975796
    6       -7.534663
    7       -6.928165
    8       -6.877176
    9        1.245331
   10        1.510833
   11        2.051039
   12        2.452101
 
  0.3333333E+00  0.2777778E-01  0.0000000E+00  0.4629630E-02
    1      -21.442272
    2      -19.495141
    3      -12.207261
    4       -9.456530
    5       -8.827200
    6       -7.984534
    7       -7.232251
    8       -7.159854
    9        1.455457
   10        2.064143
   11        2.262994
   12        2.667390
 
  0.3750000E+00  0.2777778E-01  0.0000000E+00  0.4629630E-02
    1      -21.267788
    2      -19.805647
    3      -11.662691
    4       -9.251844
    5       -8.661453
    6       -8.465324
    7       -7.575204
    8       -7.394153
    9        1.693456
   10        2.502861
   11        2.622597
   12        2.911357
 
  0.4166667E+00  0.2777778E-01  0.0000000E+00  0.4629630E-02
    1      -21.073207
    2      -20.097617
    3      -11.115695
    4       -9.024484
    5       -8.969895
    6       -8.479734
    7       -7.902919
    8       -7.626989
    9        1.959242
   10        2.770308
   11        3.176216
   12        3.183983
 
  0.4583333E+00  0.2777778E-01  0.0000000E+00  0.4629630E-02
    1      -20.858690
    2      -20.370651
    3      -10.569253
    4       -9.492128
    5       -8.775047
    6       -8.283487
    7       -8.213162
    8       -7.854777
    9        2.252697
   10        2.921685
   11        3.064469
   12        3.485480
 
  0.5000000E+00  0.2777778E-01  0.0000000E+00  0.2314815E-02
    1      -20.624431
    2      -20.624431
    3      -10.026759
    4      -10.026759
    5       -8.504286
    6       -8.504286
    7       -8.074460
    8       -8.074460
    9        2.573630
   10        2.573630
   11        3.381426
   12        3.381426
 
  0.0000000E+00  0.5555556E-01  0.0000000E+00  0.2314815E-02
    1      -22.062886
    2      -16.721149
    3      -15.842681
    4      -10.189793
    5       -9.647024
    6       -6.167954
    7       -5.873642
    8       -4.881511
    9       -1.150879
   10        0.611627
   11        1.411357
   12        1.803510
 
  0.4166667E-01  0.5555556E-01  0.0000000E+00  0.4629630E-02
    1      -22.052541
    2      -16.910089
    3      -15.638918
    4      -10.177512
    5       -9.636538
    6       -6.201290
    7       -5.901684
    8       -4.951603
    9       -1.066263
   10        0.625658
   11        1.425529
   12        1.817866
 
  0.8333333E-01  0.5555556E-01  0.0000000E+00  0.4629630E-02
    1      -22.021513
    2      -17.269989
    3      -15.234649
    4      -10.140690
    5       -9.605122
    6       -6.299516
    7       -5.985229
    8       -5.144650
    9       -0.829825
   10        0.667750
   11        1.468042
   12        1.860932
 
  0.1250000E+00  0.5555556E-01  0.0000000E+00  0.4629630E-02
    1      -21.969821
    2      -17.658990
    3      -14.772043
    4      -10.079382
    5       -9.552904
    6       -6.458699
    7       -6.121402
    8       -5.423434
    9       -0.479316
   10        0.737901
   11        1.538883
   12        1.932709
 
  0.1666667E+00  0.5555556E-01  0.0000000E+00  0.4629630E-02
    1      -21.897501
    2      -18.045969
    3      -14.282744
    4       -9.993687
    5       -9.480106
    6       -6.675405
    7       -6.303162
    8       -5.752685
    9       -0.050903
   10        0.836102
   11        1.638034
   12        2.033197
 
  0.2083333E+00  0.5555556E-01  0.0000000E+00  0.4629630E-02
    1      -21.804604
    2      -18.422058
    3      -13.776375
    4       -9.883744
    5       -9.387041
    6       -6.947877
    7       -6.519255
    8       -6.107280
    9        0.429035
   10        0.962339
   11        1.765465
   12        2.162394
 
  0.2500000E+00  0.5555556E-01  0.0000000E+00  0.4629630E-02
    1      -21.691193
    2      -18.783728
    3      -13.257472
    4       -9.749743
    5       -9.274130
    6       -7.274510
    7       -6.756970
    8       -6.471031
    9        0.942689
   10        1.116590
   11        1.921132
   12        2.320298
 
  0.2916667E+00  0.5555556E-01  0.0000000E+00  0.4629630E-02
    1      -21.557352
    2      -19.129198
    3      -12.729097
    4       -9.591925
    5       -9.141911
    6       -7.651449
    7       -7.005656
    8       -6.833675
    9        1.298820
   10        1.477786
   11        2.104973
   12        2.506905
 
  0.3333333E+00  0.5555556E-01  0.0000000E+00  0.4629630E-02
    1      -21.403176
    2      -19.457406
    3      -12.193916
    4       -9.410598
    5       -8.991056
    6       -8.072185
    7       -7.257959
    8       -7.188567
    9        1.508986
   10        2.025235
   11        2.316893
   12        2.722207
 
  0.3750000E+00  0.5555556E-01  0.0000000E+00  0.4629630E-02
    1      -21.228783
    2      -19.767639
    3      -11.654610
    4       -9.206145
    5       -8.822388
    6       -8.528978
    7       -7.531262
    8       -7.508920
    9        1.747029
   10        2.556738
   11        2.577473
   12        2.966193
 
  0.4166667E+00  0.5555556E-01  0.0000000E+00  0.4629630E-02
    1      -21.034311
    2      -20.059375
    3      -11.114097
    4       -9.014193
    5       -8.979042
    6       -8.636909
    7       -7.858679
    8       -7.754884
    9        2.012870
   10        2.824203
   11        3.126151
   12        3.238842
 
  0.4583333E+00  0.5555556E-01  0.0000000E+00  0.4629630E-02
    1      -20.819923
    2      -20.332207
    3      -10.575673
    4       -9.520921
    5       -8.729885
    6       -8.435825
    7       -8.168610
    8       -7.992921
    9        2.306400
   10        2.975758
   11        3.118472
   12        3.540108
 
  0.5000000E+00  0.5555556E-01  0.0000000E+00  0.2314815E-02
    1      -20.585812
    2      -20.585812
    3      -10.043139
    4      -10.043139
    5       -8.459423
    6       -8.459423
    7       -8.220586
    8       -8.220586
    9        2.627456
   10        2.627456
   11        3.435512
   12        3.435512
 
  0.0000000E+00  0.8333333E-01  0.0000000E+00  0.2314815E-02
    1      -21.997253
    2      -16.664537
    3      -15.790586
    4      -10.111893
    5       -9.918442
    6       -6.418910
    7       -6.028008
    8       -4.802002
    9       -1.183526
   10        0.700560
   11        1.501482
   12        1.894798
 
  0.4166667E-01  0.8333333E-01  0.0000000E+00  0.4629630E-02
    1      -21.986915
    2      -16.852971
    3      -15.587657
    4      -10.099636
    5       -9.907784
    6       -6.458322
    7       -6.046666
    8       -4.873033
    9       -1.098646
   10        0.714593
   11        1.515648
   12        1.909154
 
  0.8333333E-01  0.8333333E-01  0.0000000E+00  0.4629630E-02
    1      -21.955908
    2      -17.211851
    3      -15.185404
    4      -10.062883
    5       -9.875840
    6       -6.570274
    7       -6.107096
    8       -5.068162
    9       -0.862150
   10        0.756692
   11        1.558142
   12        1.952221
 
  0.1250000E+00  0.8333333E-01  0.0000000E+00  0.4629630E-02
    1      -21.904253
    2      -17.599809
    3      -14.725550
    4      -10.001691
    5       -9.822706
    6       -6.742102
    7       -6.216568
    8       -5.348979
    9       -0.512986
   10        0.826857
   11        1.628953
   12        2.024001
 
  0.1666667E+00  0.8333333E-01  0.0000000E+00  0.4629630E-02
    1      -21.831988
    2      -17.985843
    3      -14.239695
    4       -9.916159
    5       -9.748541
    6       -6.962764
    7       -6.377505
    8       -5.679642
    9       -0.087894
   10        0.925080
   11        1.728060
   12        2.124494
 
  0.2083333E+00  0.8333333E-01  0.0000000E+00  0.4629630E-02
    1      -21.739160
    2      -18.361105
    3      -13.737560
    4       -9.806427
    5       -9.653569
    6       -7.225210
    7       -6.585760
    8       -6.034987
    9        0.386713
   10        1.051348
   11        1.855435
   12        2.253699
 
  0.2500000E+00  0.8333333E-01  0.0000000E+00  0.4629630E-02
    1      -21.625838
    2      -18.722057
    3      -13.223851
    4       -9.672683
    5       -9.538083
    6       -7.526212
    7       -6.831682
    8       -6.398976
    9        0.893205
   10        1.205637
   11        2.011036
   12        2.411613
 
  0.2916667E+00  0.8333333E-01  0.0000000E+00  0.4629630E-02
    1      -21.492105
    2      -19.066907
    3      -12.701865
    4       -9.515170
    5       -9.402449
    6       -7.865325
    7       -7.102128
    8       -6.761508
    9        1.387912
   10        1.419548
   11        2.194803
   12        2.598234
 
  0.3333333E+00  0.8333333E-01  0.0000000E+00  0.4629630E-02
    1      -21.338059
    2      -19.394582
    3      -12.174579
    4       -9.334196
    5       -9.247103
    6       -8.242925
    7       -7.383314
    8       -7.116070
    9        1.598127
   10        1.956944
   11        2.406652
   12        2.813553
 
  0.3750000E+00  0.8333333E-01  0.0000000E+00  0.4629630E-02
    1      -21.163821
    2      -19.704355
    3      -11.645084
    4       -9.130142
    5       -9.072554
    6       -8.657880
    7       -7.663785
    8       -7.458308
    9        1.836223
   10        2.498330
   11        2.646445
   12        3.057562
 
  0.4166667E+00  0.8333333E-01  0.0000000E+00  0.4629630E-02
    1      -20.969532
    2      -19.995695
    3      -11.116830
    4       -9.106429
    5       -8.903483
    6       -8.879389
    7       -7.935910
    8       -7.785204
    9        2.102124
   10        2.913924
   11        3.037016
   12        3.330245
 
  0.4583333E+00  0.8333333E-01  0.0000000E+00  0.4629630E-02
    1      -20.755358
    2      -20.268187
    3      -10.593802
    4       -9.582828
    5       -8.668270
    6       -8.654809
    7       -8.195396
    8       -8.094591
    9        2.395733
   10        3.065450
   11        3.208390
   12        3.557105
 
  0.5000000E+00  0.8333333E-01  0.0000000E+00  0.2314815E-02
    1      -20.521499
    2      -20.521499
    3      -10.080660
    4      -10.080660
    5       -8.439961
    6       -8.439961
    7       -8.384865
    8       -8.384865
    9        2.716912
   10        2.716912
   11        3.525594
   12        3.525594
 
  0.0000000E+00  0.1111111E+00  0.0000000E+00  0.2314815E-02
    1      -21.905453
    2      -16.585311
    3      -15.719264
    4      -10.271156
    5      -10.003065
    6       -6.746833
    7       -6.237819
    8       -4.690828
    9       -1.234678
   10        0.825107
   11        1.627606
   12        2.022609
 
  0.4166667E-01  0.1111111E+00  0.0000000E+00  0.4629630E-02
    1      -21.895125
    2      -16.773174
    3      -15.517414
    4      -10.260203
    5       -9.990841
    6       -6.791211
    7       -6.247252
    8       -4.763306
    9       -1.149329
   10        0.839139
   11        1.641762
   12        2.036964
 
  0.8333333E-01  0.1111111E+00  0.0000000E+00  0.4629630E-02
    1      -21.864149
    2      -17.130698
    3      -15.118074
    4      -10.227355
    5       -9.954190
    6       -6.913996
    7       -6.284679
    8       -4.961606
    9       -0.912600
   10        0.881237
   11        1.684225
   12        2.080032
 
  0.1250000E+00  0.1111111E+00  0.0000000E+00  0.4629630E-02
    1      -21.812548
    2      -17.517194
    3      -14.662363
    4      -10.172641
    5       -9.893168
    6       -7.095824
    7       -6.365716
    8       -5.245464
    9       -0.565291
   10        0.951402
   11        1.754985
   12        2.151813
 
  0.1666667E+00  0.1111111E+00  0.0000000E+00  0.4629630E-02
    1      -21.740357
    2      -17.901887
    3      -14.181798
    4      -10.096106
    5       -9.807873
    6       -7.321104
    7       -6.499591
    8       -5.578190
    9       -0.144983
   10        1.049633
   11        1.854020
   12        2.252308
 
  0.2083333E+00  0.1111111E+00  0.0000000E+00  0.4629630E-02
    1      -21.647629
    2      -18.275966
    3      -13.686276
    4       -9.997798
    5       -9.698447
    6       -7.579726
    7       -6.687528
    8       -5.934597
    9        0.321909
   10        1.175919
   11        1.981302
   12        2.381519
 
  0.2500000E+00  0.1111111E+00  0.0000000E+00  0.4629630E-02
    1      -21.534432
    2      -18.635893
    3      -13.180815
    4       -9.877756
    5       -9.565080
    6       -7.865856
    7       -6.924418
    8       -6.298887
    9        0.818051
   10        1.330235
   11        2.136789
   12        2.539443
 
  0.2916667E+00  0.1111111E+00  0.0000000E+00  0.4629630E-02
    1      -21.400851
    2      -18.979858
    3      -12.669159
    4       -9.735988
    5       -9.408015
    6       -8.177140
    7       -7.200371
    8       -6.661212
    9        1.331768
   10        1.512546
   11        2.320424
   12        2.726076
 
  0.3333333E+00  0.1111111E+00  0.0000000E+00  0.4629630E-02
    1      -21.246990
    2      -19.306771
    3      -12.154890
    4       -9.572437
    5       -9.227558
    6       -8.514173
    7       -7.502118
    8       -7.015253
    9        1.722801
   10        1.854654
   11        2.532132
   12        2.941412
 
  0.3750000E+00  0.1111111E+00  0.0000000E+00  0.4629630E-02
    1      -21.072970
    2      -19.615889
    3      -11.641907
    4       -9.386945
    5       -9.024091
    6       -8.879510
    7       -7.814768
    8       -7.356791
    9        1.960939
   10        2.380166
   11        2.771801
   12        3.185442
 
  0.4166667E+00  0.1111111E+00  0.0000000E+00  0.4629630E-02
    1      -20.878939
    2      -19.906665
    3      -11.134705
    4       -9.275760
    5       -9.179224
    6       -8.798084
    7       -8.124263
    8       -7.682900
    9        2.226884
   10        2.902752
   11        3.039244
   12        3.458156
 
  0.4583333E+00  0.1111111E+00  0.0000000E+00  0.4629630E-02
    1      -20.665071
    2      -20.178673
    3      -10.638533
    4       -9.703320
    5       -8.948882
    6       -8.550124
    7       -8.419936
    8       -7.991473
    9        2.520542
   10        3.190461
   11        3.333988
   12        3.416432
 
  0.5000000E+00  0.1111111E+00  0.0000000E+00  0.2314815E-02
    1      -20.431569
    2      -20.431569
    3      -10.159341
    4      -10.159341
    5       -8.695634
    6       -8.695634
    7       -8.280945
    8       -8.280945
    9        2.841791
   10        2.841791
   11        3.651354
   12        3.651374
 
  0.0000000E+00  0.1388889E+00  0.0000000E+00  0.2314815E-02
    1      -21.787578
    2      -16.483500
    3      -15.630748
    4      -10.684645
    5       -9.863546
    6       -7.134884
    7       -6.497466
    8       -4.548130
    9       -1.309506
   10        0.985288
   11        1.789672
   12        2.186948
 
  0.4166667E-01  0.1388889E+00  0.0000000E+00  0.4629630E-02
    1      -21.777263
    2      -16.670900
    3      -15.430130
    4      -10.673200
    5       -9.851368
    6       -7.183435
    7       -6.497804
    8       -4.622738
    9       -1.223338
   10        0.999314
   11        1.803812
   12        2.201303
 
  0.8333333E-01  0.1388889E+00  0.0000000E+00  0.4629630E-02
    1      -21.746328
    2      -17.026813
    3      -15.034754
    4      -10.638834
    5       -9.814854
    6       -7.315416
    7       -6.511871
    8       -4.825619
    9       -0.985955
   10        1.041395
   11        1.846227
   12        2.244368
 
  0.1250000E+00  0.1388889E+00  0.0000000E+00  0.4629630E-02
    1      -21.694795
    2      -17.411426
    3      -14.585012
    4      -10.581450
    5       -9.754062
    6       -7.506175
    7       -6.562237
    8       -5.113747
    9       -0.640907
   10        1.111539
   11        1.916905
   12        2.316145
 
  0.1666667E+00  0.1388889E+00  0.0000000E+00  0.4629630E-02
    1      -21.622702
    2      -17.794353
    3      -14.112297
    4      -10.500865
    5       -9.669091
    6       -7.736809
    7       -6.663817
    8       -5.449276
    9       -0.226903
   10        1.209750
   11        2.015824
   12        2.416639
 
  0.2083333E+00  0.1388889E+00  0.0000000E+00  0.4629630E-02
    1      -21.530103
    2      -18.166866
    3      -13.626830
    4      -10.396773
    5       -9.560083
    6       -7.995287
    7       -6.822358
    8       -5.807053
    9        0.229738
   10        1.336023
   11        2.142950
   12        2.545850
 
  0.2500000E+00  0.1388889E+00  0.0000000E+00  0.4629630E-02
    1      -21.417068
    2      -18.525432
    3      -13.134224
    4      -10.268690
    5       -9.427230
    6       -8.274144
    7       -7.036725
    8       -6.171660
    9        0.712165
   10        1.490339
   11        2.298239
   12        2.703778
 
  0.2916667E+00  0.1388889E+00  0.0000000E+00  0.4629630E-02
    1      -21.283687
    2      -18.868225
    3      -12.639087
    4      -10.115877
    5       -9.270776
    6       -8.569142
    7       -7.300677
    8       -6.533614
    9        1.209235
   10        1.672660
   11        2.481633
   12        2.890419
 
  0.3333333E+00  0.1388889E+00  0.0000000E+00  0.4629630E-02
    1      -21.130064
    2      -19.194129
    3      -12.146178
    4       -9.937257
    5       -9.091027
    6       -8.878761
    7       -7.604139
    8       -6.886869
    9        1.713067
   10        1.882933
   11        2.693054
   12        3.105769
 
  0.3750000E+00  0.1388889E+00  0.0000000E+00  0.4629630E-02
    1      -20.956330
    2      -19.502381
    3      -11.660894
    4       -9.731359
    5       -9.204072
    6       -8.888363
    7       -7.934191
    8       -7.227392
    9        2.121088
   10        2.217676
   11        2.932404
   12        3.349818
 
  0.4166667E+00  0.1388889E+00  0.0000000E+00  0.4629630E-02
    1      -20.762639
    2      -19.792414
    3      -11.189401
    4       -9.548487
    5       -9.496455
    6       -8.663255
    7       -8.276012
    8       -7.552382
    9        2.387045
   10        2.718220
   11        3.199555
   12        3.622555
 
  0.4583333E+00  0.1388889E+00  0.0000000E+00  0.4629630E-02
    1      -20.549169
    2      -20.063786
    3      -10.738230
    4       -9.916790
    5       -9.231146
    6       -8.614334
    7       -8.416281
    8       -7.859810
    9        2.680706
   10        3.210570
   11        3.350631
   12        3.494337
 
  0.5000000E+00  0.1388889E+00  0.0000000E+00  0.2314815E-02
    1      -20.316136
    2      -20.316136
    3      -10.313044
    4      -10.313044
    5       -8.935753
    6       -8.935753
    7       -8.148163
    8       -8.148163
    9        3.001953
   10        3.001953
   11        3.690975
   12        3.691054
 
  0.0000000E+00  0.1666667E+00  0.0000000E+00  0.2314815E-02
    1      -21.643749
    2      -16.359145
    3      -15.528459
    4      -11.138182
    5       -9.693655
    6       -7.567302
    7       -6.800568
    8       -4.374094
    9       -1.414120
   10        1.181105
   11        1.987601
   12        2.387821
 
  0.4166667E-01  0.1666667E+00  0.0000000E+00  0.4629630E-02
    1      -21.633451
    2      -16.546475
    3      -15.329090
    4      -11.125898
    5       -9.681538
    6       -7.619580
    7       -6.791887
    8       -4.451821
    9       -1.326495
   10        1.195119
   11        2.001715
   12        2.402173
 
  0.8333333E-01  0.1666667E+00  0.0000000E+00  0.4629630E-02
    1      -21.602567
    2      -16.900648
    3      -14.939081
    4      -11.088932
    5       -9.645204
    6       -7.759909
    7       -6.782249
    8       -4.661225
    9       -1.087558
   10        1.237166
   11        2.044054
   12        2.445232
 
  0.1250000E+00  0.1666667E+00  0.0000000E+00  0.4629630E-02
    1      -21.551119
    2      -17.282939
    3      -14.498027
    4      -11.026927
    5       -9.584713
    6       -7.959168
    7       -6.800200
    8       -4.955186
    9       -0.744917
   10        1.307260
   11        2.114599
   12        2.517001
 
  0.1666667E+00  0.1666667E+00  0.0000000E+00  0.4629630E-02
    1      -21.479146
    2      -17.663625
    3      -14.037179
    4      -10.939225
    5       -9.500167
    6       -8.195792
    7       -6.865588
    8       -5.294361
    9       -0.338697
   10        1.405413
   11        2.213322
   12        2.617484
 
  0.2083333E+00  0.1666667E+00  0.0000000E+00  0.4629630E-02
    1      -21.386706
    2      -18.034138
    3      -13.567421
    4      -10.824772
    5       -9.391709
    6       -8.456421
    7       -6.988144
    8       -5.653783
    9        0.105102
   10        1.531630
   11        2.340180
   12        2.746686
 
  0.2500000E+00  0.1666667E+00  0.0000000E+00  0.4629630E-02
    1      -21.273873
    2      -18.390965
    3      -13.095542
    4      -10.681984
    5       -9.259532
    6       -8.732682
    7       -7.170234
    8       -6.018627
    9        0.570418
   10        1.685902
   11        2.495108
   12        2.904609
 
  0.2916667E+00  0.1666667E+00  0.0000000E+00  0.4629630E-02
    1      -21.140738
    2      -18.732261
    3      -12.627809
    4      -10.508618
    5       -9.103883
    6       -9.019301
    7       -7.408797
    8       -6.379928
    9        1.046906
   10        1.868192
   11        2.678019
   12        3.091252
 
  0.3333333E+00  0.1666667E+00  0.0000000E+00  0.4629630E-02
    1      -20.987415
    2      -19.056881
    3      -12.170993
    4      -10.301778
    5       -9.313275
    6       -8.925070
    7       -7.696715
    8       -6.732011
    9        1.527422
   10        2.078444
   11        2.888779
   12        3.306610
 
  0.3750000E+00  0.1666667E+00  0.0000000E+00  0.4629630E-02
    1      -20.814038
    2      -19.364033
    3      -11.732346
    4      -10.058385
    5       -9.613632
    6       -8.723474
    7       -8.023895
    8       -7.071092
    9        2.006675
   10        2.316581
   11        3.127156
   12        3.550671
 
  0.4166667E+00  0.1666667E+00  0.0000000E+00  0.4629630E-02
    1      -20.620771
    2      -19.653125
    3      -11.318445
    4       -9.921491
    5       -9.776592
    6       -8.499561
    7       -8.378052
    8       -7.394524
    9        2.480473
   10        2.582511
   11        3.392521
   12        3.823426
 
  0.4583333E+00  0.1666667E+00  0.0000000E+00  0.4629630E-02
    1      -20.407803
    2      -19.923693
    3      -10.933034
    4      -10.240217
    5       -9.458123
    6       -8.745202
    7       -8.253906
    8       -7.700384
    9        2.876126
   10        2.945206
   11        3.545874
   12        3.675947
 
  0.5000000E+00  0.1666667E+00  0.0000000E+00  0.2314815E-02
    1      -20.175356
    2      -20.175356
    3      -10.575263
    4      -10.575263
    5       -9.110214
    6       -9.110214
    7       -7.987218
    8       -7.987218
    9        3.197299
   10        3.197299
   11        3.396737
   12        3.396737
 