<?xml version="1.0" encoding="ISO-8859-1"?>
<modeling>
 <generator>
  <i name="program" type="string">vasp </i>
  <i name="version" type="string">5.3.5  </i>
  <i name="subversion" type="string">31Mar14 (build Mar 02 2015 18:14:16) complex                          parallel </i>
  <i name="platform" type="string">LinuxIFC </i>
  <i name="date" type="string">2018 08 09 </i>
  <i name="time" type="string">20:58:28 </i>
 </generator>
 <incar>
  <i type="string" name="SYSTEM">  gr</i>
  <i type="string" name="PREC">accurate : accuracy</i>
  <i type="string" name="ALGO"> FAST.</i>
  <i type="int" name="NELM">   100</i>
  <i type="int" name="NELMDL">    -3</i>
  <i type="int" name="NELMIN">     5</i>
  <i type="int" name="IBRION">     1</i>
  <i name="EDIFF">      0.00000000</i>
  <i name="EDIFFG">     -0.00000100</i>
  <i type="int" name="NSW">   400</i>
  <i type="int" name="ISIF">     2</i>
  <i name="ENCUT">   2000.00000000</i>
  <i type="int" name="ISMEAR">     0</i>
  <i name="SIGMA">      0.05000000</i>
  <i type="int" name="NWRITE">     2</i>
  <i type="logical" name="LWAVE"> F  </i>
  <i type="logical" name="LCHARG"> F  </i>
  <i type="int" name="NELM">   100</i>
 </incar>
 <kpoints>
  <generation param="Gamma">
   <v type="int" name="divisions">      24       36        1 </v>
   <v name="usershift">      0.00000000       0.00000000       0.00000000 </v>
   <v name="genvec1">      0.04166667       0.00000000       0.00000000 </v>
   <v name="genvec2">      0.00000000       0.02777778       0.00000000 </v>
   <v name="genvec3">      0.00000000       0.00000000       1.00000000 </v>
   <v name="shift">      0.00000000       0.00000000       0.00000000 </v>
  </generation>
  <varray name="kpointlist" >
   <v>       0.00000000       0.00000000       0.00000000 </v>
   <v>       0.04166667       0.00000000       0.00000000 </v>
   <v>       0.08333333       0.00000000       0.00000000 </v>
   <v>       0.12500000       0.00000000       0.00000000 </v>
   <v>       0.16666667       0.00000000       0.00000000 </v>
   <v>       0.20833333       0.00000000       0.00000000 </v>
   <v>       0.25000000       0.00000000       0.00000000 </v>
   <v>       0.29166667       0.00000000       0.00000000 </v>
   <v>       0.33333333       0.00000000       0.00000000 </v>
   <v>       0.37500000       0.00000000       0.00000000 </v>
   <v>       0.41666667       0.00000000       0.00000000 </v>
   <v>       0.45833333       0.00000000       0.00000000 </v>
   <v>       0.50000000       0.00000000       0.00000000 </v>
   <v>       0.00000000       0.02777778       0.00000000 </v>
   <v>       0.04166667       0.02777778       0.00000000 </v>
   <v>       0.08333333       0.02777778       0.00000000 </v>
   <v>       0.12500000       0.02777778       0.00000000 </v>
   <v>       0.16666667       0.02777778       0.00000000 </v>
   <v>       0.20833333       0.02777778       0.00000000 </v>
   <v>       0.25000000       0.02777778       0.00000000 </v>
   <v>       0.29166667       0.02777778       0.00000000 </v>
   <v>       0.33333333       0.02777778       0.00000000 </v>
   <v>       0.37500000       0.02777778       0.00000000 </v>
   <v>       0.41666667       0.02777778       0.00000000 </v>
   <v>       0.45833333       0.02777778       0.00000000 </v>
   <v>       0.50000000       0.02777778       0.00000000 </v>
   <v>       0.00000000       0.05555556       0.00000000 </v>
   <v>       0.04166667       0.05555556       0.00000000 </v>
   <v>       0.08333333       0.05555556       0.00000000 </v>
   <v>       0.12500000       0.05555556       0.00000000 </v>
   <v>       0.16666667       0.05555556       0.00000000 </v>
   <v>       0.20833333       0.05555556       0.00000000 </v>
   <v>       0.25000000       0.05555556       0.00000000 </v>
   <v>       0.29166667       0.05555556       0.00000000 </v>
   <v>       0.33333333       0.05555556       0.00000000 </v>
   <v>       0.37500000       0.05555556       0.00000000 </v>
   <v>       0.41666667       0.05555556       0.00000000 </v>
   <v>       0.45833333       0.05555556       0.00000000 </v>
   <v>       0.50000000       0.05555556       0.00000000 </v>
   <v>       0.00000000       0.08333333       0.00000000 </v>
   <v>       0.04166667       0.08333333       0.00000000 </v>
   <v>       0.08333333       0.08333333       0.00000000 </v>
   <v>       0.12500000       0.08333333       0.00000000 </v>
   <v>       0.16666667       0.08333333       0.00000000 </v>
   <v>       0.20833333       0.08333333       0.00000000 </v>
   <v>       0.25000000       0.08333333       0.00000000 </v>
   <v>       0.29166667       0.08333333       0.00000000 </v>
   <v>       0.33333333       0.08333333       0.00000000 </v>
   <v>       0.37500000       0.08333333       0.00000000 </v>
   <v>       0.41666667       0.08333333       0.00000000 </v>
   <v>       0.45833333       0.08333333       0.00000000 </v>
   <v>       0.50000000       0.08333333       0.00000000 </v>
   <v>       0.00000000       0.11111111       0.00000000 </v>
   <v>       0.04166667       0.11111111       0.00000000 </v>
   <v>       0.08333333       0.11111111       0.00000000 </v>
   <v>       0.12500000       0.11111111       0.00000000 </v>
   <v>       0.16666667       0.11111111       0.00000000 </v>
   <v>       0.20833333       0.11111111       0.00000000 </v>
   <v>       0.25000000       0.11111111       0.00000000 </v>
   <v>       0.29166667       0.11111111       0.00000000 </v>
   <v>       0.33333333       0.11111111       0.00000000 </v>
   <v>       0.37500000       0.11111111       0.00000000 </v>
   <v>       0.41666667       0.11111111       0.00000000 </v>
   <v>       0.45833333       0.11111111       0.00000000 </v>
   <v>       0.50000000       0.11111111       0.00000000 </v>
   <v>       0.00000000       0.13888889       0.00000000 </v>
   <v>       0.04166667       0.13888889       0.00000000 </v>
   <v>       0.08333333       0.13888889       0.00000000 </v>
   <v>       0.12500000       0.13888889       0.00000000 </v>
   <v>       0.16666667       0.13888889       0.00000000 </v>
   <v>       0.20833333       0.13888889       0.00000000 </v>
   <v>       0.25000000       0.13888889       0.00000000 </v>
   <v>       0.29166667       0.13888889       0.00000000 </v>
   <v>       0.33333333       0.13888889       0.00000000 </v>
   <v>       0.37500000       0.13888889       0.00000000 </v>
   <v>       0.41666667       0.13888889       0.00000000 </v>
   <v>       0.45833333       0.13888889       0.00000000 </v>
   <v>       0.50000000       0.13888889       0.00000000 </v>
   <v>       0.00000000       0.16666667       0.00000000 </v>
   <v>       0.04166667       0.16666667       0.00000000 </v>
   <v>       0.08333333       0.16666667       0.00000000 </v>
   <v>       0.12500000       0.16666667       0.00000000 </v>
   <v>       0.16666667       0.16666667       0.00000000 </v>
   <v>       0.20833333       0.16666667       0.00000000 </v>
   <v>       0.25000000       0.16666667       0.00000000 </v>
   <v>       0.29166667       0.16666667       0.00000000 </v>
   <v>       0.33333333       0.16666667       0.00000000 </v>
   <v>       0.37500000       0.16666667       0.00000000 </v>
   <v>       0.41666667       0.16666667       0.00000000 </v>
   <v>       0.45833333       0.16666667       0.00000000 </v>
   <v>       0.50000000       0.16666667       0.00000000 </v>
   <v>       0.00000000       0.19444444       0.00000000 </v>
   <v>       0.04166667       0.19444444       0.00000000 </v>
   <v>       0.08333333       0.19444444       0.00000000 </v>
   <v>       0.12500000       0.19444444       0.00000000 </v>
   <v>       0.16666667       0.19444444       0.00000000 </v>
   <v>       0.20833333       0.19444444       0.00000000 </v>
   <v>       0.25000000       0.19444444       0.00000000 </v>
   <v>       0.29166667       0.19444444       0.00000000 </v>
   <v>       0.33333333       0.19444444       0.00000000 </v>
   <v>       0.37500000       0.19444444       0.00000000 </v>
   <v>       0.41666667       0.19444444       0.00000000 </v>
   <v>       0.45833333       0.19444444       0.00000000 </v>
   <v>       0.50000000       0.19444444       0.00000000 </v>
   <v>       0.00000000       0.22222222       0.00000000 </v>
   <v>       0.04166667       0.22222222       0.00000000 </v>
   <v>       0.08333333       0.22222222       0.00000000 </v>
   <v>       0.12500000       0.22222222       0.00000000 </v>
   <v>       0.16666667       0.22222222       0.00000000 </v>
   <v>       0.20833333       0.22222222       0.00000000 </v>
   <v>       0.25000000       0.22222222       0.00000000 </v>
   <v>       0.29166667       0.22222222       0.00000000 </v>
   <v>       0.33333333       0.22222222       0.00000000 </v>
   <v>       0.37500000       0.22222222       0.00000000 </v>
   <v>       0.41666667       0.22222222       0.00000000 </v>
   <v>       0.45833333       0.22222222       0.00000000 </v>
   <v>       0.50000000       0.22222222       0.00000000 </v>
   <v>       0.00000000       0.25000000       0.00000000 </v>
   <v>       0.04166667       0.25000000       0.00000000 </v>
   <v>       0.08333333       0.25000000       0.00000000 </v>
   <v>       0.12500000       0.25000000       0.00000000 </v>
   <v>       0.16666667       0.25000000       0.00000000 </v>
   <v>       0.20833333       0.25000000       0.00000000 </v>
   <v>       0.25000000       0.25000000       0.00000000 </v>
   <v>       0.29166667       0.25000000       0.00000000 </v>
   <v>       0.33333333       0.25000000       0.00000000 </v>
   <v>       0.37500000       0.25000000       0.00000000 </v>
   <v>       0.41666667       0.25000000       0.00000000 </v>
   <v>       0.45833333       0.25000000       0.00000000 </v>
   <v>       0.50000000       0.25000000       0.00000000 </v>
   <v>       0.00000000       0.27777778       0.00000000 </v>
   <v>       0.04166667       0.27777778       0.00000000 </v>
   <v>       0.08333333       0.27777778       0.00000000 </v>
   <v>       0.12500000       0.27777778       0.00000000 </v>
   <v>       0.16666667       0.27777778       0.00000000 </v>
   <v>       0.20833333       0.27777778       0.00000000 </v>
   <v>       0.25000000       0.27777778       0.00000000 </v>
   <v>       0.29166667       0.27777778       0.00000000 </v>
   <v>       0.33333333       0.27777778       0.00000000 </v>
   <v>       0.37500000       0.27777778       0.00000000 </v>
   <v>       0.41666667       0.27777778       0.00000000 </v>
   <v>       0.45833333       0.27777778       0.00000000 </v>
   <v>       0.50000000       0.27777778       0.00000000 </v>
   <v>       0.00000000       0.30555556       0.00000000 </v>
   <v>       0.04166667       0.30555556       0.00000000 </v>
   <v>       0.08333333       0.30555556       0.00000000 </v>
   <v>       0.12500000       0.30555556       0.00000000 </v>
   <v>       0.16666667       0.30555556       0.00000000 </v>
   <v>       0.20833333       0.30555556       0.00000000 </v>
   <v>       0.25000000       0.30555556       0.00000000 </v>
   <v>       0.29166667       0.30555556       0.00000000 </v>
   <v>       0.33333333       0.30555556       0.00000000 </v>
   <v>       0.37500000       0.30555556       0.00000000 </v>
   <v>       0.41666667       0.30555556       0.00000000 </v>
   <v>       0.45833333       0.30555556       0.00000000 </v>
   <v>       0.50000000       0.30555556       0.00000000 </v>
   <v>       0.00000000       0.33333333       0.00000000 </v>
   <v>       0.04166667       0.33333333       0.00000000 </v>
   <v>       0.08333333       0.33333333       0.00000000 </v>
   <v>       0.12500000       0.33333333       0.00000000 </v>
   <v>       0.16666667       0.33333333       0.00000000 </v>
   <v>       0.20833333       0.33333333       0.00000000 </v>
   <v>       0.25000000       0.33333333       0.00000000 </v>
   <v>       0.29166667       0.33333333       0.00000000 </v>
   <v>       0.33333333       0.33333333       0.00000000 </v>
   <v>       0.37500000       0.33333333       0.00000000 </v>
   <v>       0.41666667       0.33333333       0.00000000 </v>
   <v>       0.45833333       0.33333333       0.00000000 </v>
   <v>       0.50000000       0.33333333       0.00000000 </v>
   <v>       0.00000000       0.36111111       0.00000000 </v>
   <v>       0.04166667       0.36111111       0.00000000 </v>
   <v>       0.08333333       0.36111111       0.00000000 </v>
   <v>       0.12500000       0.36111111       0.00000000 </v>
   <v>       0.16666667       0.36111111       0.00000000 </v>
   <v>       0.20833333       0.36111111       0.00000000 </v>
   <v>       0.25000000       0.36111111       0.00000000 </v>
   <v>       0.29166667       0.36111111       0.00000000 </v>
   <v>       0.33333333       0.36111111       0.00000000 </v>
   <v>       0.37500000       0.36111111       0.00000000 </v>
   <v>       0.41666667       0.36111111       0.00000000 </v>
   <v>       0.45833333       0.36111111       0.00000000 </v>
   <v>       0.50000000       0.36111111       0.00000000 </v>
   <v>       0.00000000       0.38888889       0.00000000 </v>
   <v>       0.04166667       0.38888889       0.00000000 </v>
   <v>       0.08333333       0.38888889       0.00000000 </v>
   <v>       0.12500000       0.38888889       0.00000000 </v>
   <v>       0.16666667       0.38888889       0.00000000 </v>
   <v>       0.20833333       0.38888889       0.00000000 </v>
   <v>       0.25000000       0.38888889       0.00000000 </v>
   <v>       0.29166667       0.38888889       0.00000000 </v>
   <v>       0.33333333       0.38888889       0.00000000 </v>
   <v>       0.37500000       0.38888889       0.00000000 </v>
   <v>       0.41666667       0.38888889       0.00000000 </v>
   <v>       0.45833333       0.38888889       0.00000000 </v>
   <v>       0.50000000       0.38888889       0.00000000 </v>
   <v>       0.00000000       0.41666667       0.00000000 </v>
   <v>       0.04166667       0.41666667       0.00000000 </v>
   <v>       0.08333333       0.41666667       0.00000000 </v>
   <v>       0.12500000       0.41666667       0.00000000 </v>
   <v>       0.16666667       0.41666667       0.00000000 </v>
   <v>       0.20833333       0.41666667       0.00000000 </v>
   <v>       0.25000000       0.41666667       0.00000000 </v>
   <v>       0.29166667       0.41666667       0.00000000 </v>
   <v>       0.33333333       0.41666667       0.00000000 </v>
   <v>       0.37500000       0.41666667       0.00000000 </v>
   <v>       0.41666667       0.41666667       0.00000000 </v>
   <v>       0.45833333       0.41666667       0.00000000 </v>
   <v>       0.50000000       0.41666667       0.00000000 </v>
   <v>       0.00000000       0.44444444       0.00000000 </v>
   <v>       0.04166667       0.44444444       0.00000000 </v>
   <v>       0.08333333       0.44444444       0.00000000 </v>
   <v>       0.12500000       0.44444444       0.00000000 </v>
   <v>       0.16666667       0.44444444       0.00000000 </v>
   <v>       0.20833333       0.44444444       0.00000000 </v>
   <v>       0.25000000       0.44444444       0.00000000 </v>
   <v>       0.29166667       0.44444444       0.00000000 </v>
   <v>       0.33333333       0.44444444       0.00000000 </v>
   <v>       0.37500000       0.44444444       0.00000000 </v>
   <v>       0.41666667       0.44444444       0.00000000 </v>
   <v>       0.45833333       0.44444444       0.00000000 </v>
   <v>       0.50000000       0.44444444       0.00000000 </v>
   <v>       0.00000000       0.47222222       0.00000000 </v>
   <v>       0.04166667       0.47222222       0.00000000 </v>
   <v>       0.08333333       0.47222222       0.00000000 </v>
   <v>       0.12500000       0.47222222       0.00000000 </v>
   <v>       0.16666667       0.47222222       0.00000000 </v>
   <v>       0.20833333       0.47222222       0.00000000 </v>
   <v>       0.25000000       0.47222222       0.00000000 </v>
   <v>       0.29166667       0.47222222       0.00000000 </v>
   <v>       0.33333333       0.47222222       0.00000000 </v>
   <v>       0.37500000       0.47222222       0.00000000 </v>
   <v>       0.41666667       0.47222222       0.00000000 </v>
   <v>       0.45833333       0.47222222       0.00000000 </v>
   <v>       0.50000000       0.47222222       0.00000000 </v>
   <v>       0.00000000       0.50000000       0.00000000 </v>
   <v>       0.04166667       0.50000000       0.00000000 </v>
   <v>       0.08333333       0.50000000       0.00000000 </v>
   <v>       0.12500000       0.50000000       0.00000000 </v>
   <v>       0.16666667       0.50000000       0.00000000 </v>
   <v>       0.20833333       0.50000000       0.00000000 </v>
   <v>       0.25000000       0.50000000       0.00000000 </v>
   <v>       0.29166667       0.50000000       0.00000000 </v>
   <v>       0.33333333       0.50000000       0.00000000 </v>
   <v>       0.37500000       0.50000000       0.00000000 </v>
   <v>       0.41666667       0.50000000       0.00000000 </v>
   <v>       0.45833333       0.50000000       0.00000000 </v>
   <v>       0.50000000       0.50000000       0.00000000 </v>
  </varray>
  <varray name="weights" >
   <v>       0.00115741 </v>
   <v>       0.00231481 </v>
   <v>       0.00231481 </v>
   <v>       0.00231481 </v>
   <v>       0.00231481 </v>
   <v>       0.00231481 </v>
   <v>       0.00231481 </v>
   <v>       0.00231481 </v>
   <v>       0.00231481 </v>
   <v>       0.00231481 </v>
   <v>       0.00231481 </v>
   <v>       0.00231481 </v>
   <v>       0.00115741 </v>
   <v>       0.00231481 </v>
   <v>       0.00462963 </v>
   <v>       0.00462963 </v>
   <v>       0.00462963 </v>
   <v>       0.00462963 </v>
   <v>       0.00462963 </v>
   <v>       0.00462963 </v>
   <v>       0.00462963 </v>
   <v>       0.00462963 </v>
   <v>       0.00462963 </v>
   <v>       0.00462963 </v>
   <v>       0.00462963 </v>
   <v>       0.00231481 </v>
   <v>       0.00231481 </v>
   <v>       0.00462963 </v>
   <v>       0.00462963 </v>
   <v>       0.00462963 </v>
   <v>       0.00462963 </v>
   <v>       0.00462963 </v>
   <v>       0.00462963 </v>
   <v>       0.00462963 </v>
   <v>       0.00462963 </v>
   <v>       0.00462963 </v>
   <v>       0.00462963 </v>
   <v>       0.00462963 </v>
   <v>       0.00231481 </v>
   <v>       0.00231481 </v>
   <v>       0.00462963 </v>
   <v>       0.00462963 </v>
   <v>       0.00462963 </v>
   <v>       0.00462963 </v>
   <v>       0.00462963 </v>
   <v>       0.00462963 </v>
   <v>       0.00462963 </v>
   <v>       0.00462963 </v>
   <v>       0.00462963 </v>
   <v>       0.00462963 </v>
   <v>       0.00462963 </v>
   <v>       0.00231481 </v>
   <v>       0.00231481 </v>
   <v>       0.00462963 </v>
   <v>       0.00462963 </v>
   <v>       0.00462963 </v>
   <v>       0.00462963 </v>
   <v>       0.00462963 </v>
   <v>       0.00462963 </v>
   <v>       0.00462963 </v>
   <v>       0.00462963 </v>
   <v>       0.00462963 </v>
   <v>       0.00462963 </v>
   <v>       0.00462963 </v>
   <v>       0.00231481 </v>
   <v>       0.00231481 </v>
   <v>       0.00462963 </v>
   <v>       0.00462963 </v>
   <v>       0.00462963 </v>
   <v>       0.00462963 </v>
   <v>       0.00462963 </v>
   <v>       0.00462963 </v>
   <v>       0.00462963 </v>
   <v>       0.00462963 </v>
   <v>       0.00462963 </v>
   <v>       0.00462963 </v>
   <v>       0.00462963 </v>
   <v>       0.00231481 </v>
   <v>       0.00231481 </v>
   <v>       0.00462963 </v>
   <v>       0.00462963 </v>
   <v>       0.00462963 </v>
   <v>       0.00462963 </v>
   <v>       0.00462963 </v>
   <v>       0.00462963 </v>
   <v>       0.00462963 </v>
   <v>       0.00462963 </v>
   <v>       0.00462963 </v>
   <v>       0.00462963 </v>
   <v>       0.00462963 </v>
   <v>       0.00231481 </v>
   <v>       0.00231481 </v>
   <v>       0.00462963 </v>
   <v>       0.00462963 </v>
   <v>       0.00462963 </v>
   <v>       0.00462963 </v>
   <v>       0.00462963 </v>
   <v>       0.00462963 </v>
   <v>       0.00462963 </v>
   <v>       0.00462963 </v>
   <v>       0.00462963 </v>
   <v>       0.00462963 </v>
   <v>       0.00462963 </v>
   <v>       0.00231481 </v>
   <v>       0.00231481 </v>
   <v>       0.00462963 </v>
   <v>       0.00462963 </v>
   <v>       0.00462963 </v>
   <v>       0.00462963 </v>
   <v>       0.00462963 </v>
   <v>       0.00462963 </v>
   <v>       0.00462963 </v>
   <v>       0.00462963 </v>
   <v>       0.00462963 </v>
   <v>       0.00462963 </v>
   <v>       0.00462963 </v>
   <v>       0.00231481 </v>
   <v>       0.00231481 </v>
   <v>       0.00462963 </v>
   <v>       0.00462963 </v>
   <v>       0.00462963 </v>
   <v>       0.00462963 </v>
   <v>       0.00462963 </v>
   <v>       0.00462963 </v>
   <v>       0.00462963 </v>
   <v>       0.00462963 </v>
   <v>       0.00462963 </v>
   <v>       0.00462963 </v>
   <v>       0.00462963 </v>
   <v>       0.00231481 </v>
   <v>       0.00231481 </v>
   <v>       0.00462963 </v>
   <v>       0.00462963 </v>
   <v>       0.00462963 </v>
   <v>       0.00462963 </v>
   <v>       0.00462963 </v>
   <v>       0.00462963 </v>
   <v>       0.00462963 </v>
   <v>       0.00462963 </v>
   <v>       0.00462963 </v>
   <v>       0.00462963 </v>
   <v>       0.00462963 </v>
   <v>       0.00231481 </v>
   <v>       0.00231481 </v>
   <v>       0.00462963 </v>
   <v>       0.00462963 </v>
   <v>       0.00462963 </v>
   <v>       0.00462963 </v>
   <v>       0.00462963 </v>
   <v>       0.00462963 </v>
   <v>       0.00462963 </v>
   <v>       0.00462963 </v>
   <v>       0.00462963 </v>
   <v>       0.00462963 </v>
   <v>       0.00462963 </v>
   <v>       0.00231481 </v>
   <v>       0.00231481 </v>
   <v>       0.00462963 </v>
   <v>       0.00462963 </v>
   <v>       0.00462963 </v>
   <v>       0.00462963 </v>
   <v>       0.00462963 </v>
   <v>       0.00462963 </v>
   <v>       0.00462963 </v>
   <v>       0.00462963 </v>
   <v>       0.00462963 </v>
   <v>       0.00462963 </v>
   <v>       0.00462963 </v>
   <v>       0.00231481 </v>
   <v>       0.00231481 </v>
   <v>       0.00462963 </v>
   <v>       0.00462963 </v>
   <v>       0.00462963 </v>
   <v>       0.00462963 </v>
   <v>       0.00462963 </v>
   <v>       0.00462963 </v>
   <v>       0.00462963 </v>
   <v>       0.00462963 </v>
   <v>       0.00462963 </v>
   <v>       0.00462963 </v>
   <v>       0.00462963 </v>
   <v>       0.00231481 </v>
   <v>       0.00231481 </v>
   <v>       0.00462963 </v>
   <v>       0.00462963 </v>
   <v>       0.00462963 </v>
   <v>       0.00462963 </v>
   <v>       0.00462963 </v>
   <v>       0.00462963 </v>
   <v>       0.00462963 </v>
   <v>       0.00462963 </v>
   <v>       0.00462963 </v>
   <v>       0.00462963 </v>
   <v>       0.00462963 </v>
   <v>       0.00231481 </v>
   <v>       0.00231481 </v>
   <v>       0.00462963 </v>
   <v>       0.00462963 </v>
   <v>       0.00462963 </v>
   <v>       0.00462963 </v>
   <v>       0.00462963 </v>
   <v>       0.00462963 </v>
   <v>       0.00462963 </v>
   <v>       0.00462963 </v>
   <v>       0.00462963 </v>
   <v>       0.00462963 </v>
   <v>       0.00462963 </v>
   <v>       0.00231481 </v>
   <v>       0.00231481 </v>
   <v>       0.00462963 </v>
   <v>       0.00462963 </v>
   <v>       0.00462963 </v>
   <v>       0.00462963 </v>
   <v>       0.00462963 </v>
   <v>       0.00462963 </v>
   <v>       0.00462963 </v>
   <v>       0.00462963 </v>
   <v>       0.00462963 </v>
   <v>       0.00462963 </v>
   <v>       0.00462963 </v>
   <v>       0.00231481 </v>
   <v>       0.00231481 </v>
   <v>       0.00462963 </v>
   <v>       0.00462963 </v>
   <v>       0.00462963 </v>
   <v>       0.00462963 </v>
   <v>       0.00462963 </v>
   <v>       0.00462963 </v>
   <v>       0.00462963 </v>
   <v>       0.00462963 </v>
   <v>       0.00462963 </v>
   <v>       0.00462963 </v>
   <v>       0.00462963 </v>
   <v>       0.00231481 </v>
   <v>       0.00115741 </v>
   <v>       0.00231481 </v>
   <v>       0.00231481 </v>
   <v>       0.00231481 </v>
   <v>       0.00231481 </v>
   <v>       0.00231481 </v>
   <v>       0.00231481 </v>
   <v>       0.00231481 </v>
   <v>       0.00231481 </v>
   <v>       0.00231481 </v>
   <v>       0.00231481 </v>
   <v>       0.00231481 </v>
   <v>       0.00115741 </v>
  </varray>
 </kpoints>
 <parameters>
  <separator name="general" >
   <i type="string" name="SYSTEM">gr</i>
   <i type="logical" name="LCOMPAT"> F  </i>
  </separator>
  <separator name="electronic" >
   <i type="string" name="PREC">accura</i>
   <i name="ENMAX">   2000.00000000</i>
   <i name="ENAUG">    644.87300000</i>
   <i name="EDIFF">      0.00000000</i>
   <i type="int" name="IALGO">    68</i>
   <i type="int" name="IWAVPR">    11</i>
   <i type="int" name="NBANDS">    12</i>
   <i name="NELECT">     16.00000000</i>
   <i type="int" name="TURBO">     0</i>
   <i type="int" name="IRESTART">     0</i>
   <i type="int" name="NREBOOT">     0</i>
   <i type="int" name="NMIN">     0</i>
   <i name="EREF">      0.00000000</i>
   <separator name="electronic smearing" >
    <i type="int" name="ISMEAR">     0</i>
    <i name="SIGMA">      0.05000000</i>
    <i name="KSPACING">      0.50000000</i>
    <i type="logical" name="KGAMMA"> T  </i>
   </separator>
   <separator name="electronic projectors" >
    <i type="logical" name="LREAL"> F  </i>
    <v name="ROPT">      0.00000000</v>
    <i type="int" name="LMAXPAW">  -100</i>
    <i type="int" name="LMAXMIX">     2</i>
    <i type="logical" name="NLSPLINE"> F  </i>
   </separator>
   <separator name="electronic startup" >
    <i type="int" name="ISTART">     0</i>
    <i type="int" name="ICHARG">     2</i>
    <i type="int" name="INIWAV">     1</i>
   </separator>
   <separator name="electronic spin" >
    <i type="int" name="ISPIN">     1</i>
    <i type="logical" name="LNONCOLLINEAR"> F  </i>
    <v name="MAGMOM">      1.00000000      1.00000000      1.00000000      1.00000000</v>
    <i name="NUPDOWN">     -1.00000000</i>
    <i type="logical" name="LSORBIT"> F  </i>
    <v name="SAXIS">      0.00000000      0.00000000      1.00000000</v>
    <i type="logical" name="LSPIRAL"> F  </i>
    <v name="QSPIRAL">      0.00000000      0.00000000      0.00000000</v>
    <i type="logical" name="LZEROZ"> F  </i>
   </separator>
   <separator name="electronic exchange-correlation" >
    <i type="logical" name="LASPH"> F  </i>
    <i type="logical" name="LMETAGGA"> F  </i>
   </separator>
   <separator name="electronic convergence" >
    <i type="int" name="NELM">   100</i>
    <i type="int" name="NELMDL">    -3</i>
    <i type="int" name="NELMIN">     5</i>
    <i name="ENINI">   2000.00000000</i>
    <separator name="electronic convergence detail" >
     <i type="logical" name="LDIAG"> T  </i>
     <i type="logical" name="LSUBROT"> F  </i>
     <i name="WEIMIN">      0.00100000</i>
     <i name="EBREAK">      0.00000000</i>
     <i name="DEPER">      0.30000000</i>
     <i type="int" name="NRMM">     4</i>
     <i name="TIME">      0.40000000</i>
    </separator>
   </separator>
   <separator name="electronic mixer" >
    <i name="AMIX">      0.40000000</i>
    <i name="BMIX">      1.00000000</i>
    <i name="AMIN">      0.10000000</i>
    <i name="AMIX_MAG">      1.60000000</i>
    <i name="BMIX_MAG">      1.00000000</i>
    <separator name="electronic mixer details" >
     <i type="int" name="IMIX">     4</i>
     <i type="int" name="MAXMIX">   -45</i>
     <i name="WC">    100.00000000</i>
     <i type="int" name="INIMIX">     1</i>
     <i type="int" name="MIXPRE">     1</i>
     <i type="int" name="MREMOVE">     5</i>
    </separator>
   </separator>
   <separator name="electronic dipolcorrection" >
    <i type="logical" name="LDIPOL"> F  </i>
    <i type="logical" name="LMONO"> F  </i>
    <i type="int" name="IDIPOL">     0</i>
    <i name="EPSILON">      1.00000000</i>
    <v name="DIPOL">   -100.00000000   -100.00000000   -100.00000000</v>
    <i name="EFIELD">      0.00000000</i>
   </separator>
  </separator>
  <separator name="grids" >
   <i type="int" name="NGX">    64</i>
   <i type="int" name="NGY">    40</i>
   <i type="int" name="NGZ">   288</i>
   <i type="int" name="NGXF">   128</i>
   <i type="int" name="NGYF">    80</i>
   <i type="int" name="NGZF">   576</i>
   <i type="logical" name="ADDGRID"> F  </i>
  </separator>
  <separator name="ionic" >
   <i type="int" name="NSW">   400</i>
   <i type="int" name="IBRION">     1</i>
   <i type="int" name="ISIF">     2</i>
   <i name="PSTRESS">      0.00000000</i>
   <i name="EDIFFG">     -0.00000100</i>
   <i type="int" name="NFREE">     0</i>
   <i name="POTIM">      0.50000000</i>
   <i name="SMASS">     -3.00000000</i>
   <i name="SCALEE">      1.00000000</i>
  </separator>
  <separator name="ionic md" >
   <i name="TEBEG">      0.00010000</i>
   <i name="TEEND">      0.00010000</i>
   <i type="int" name="NBLOCK">     1</i>
   <i type="int" name="KBLOCK">   400</i>
   <i type="int" name="NPACO">   256</i>
   <i name="APACO">     16.00000000</i>
  </separator>
  <separator name="symmetry" >
   <i type="int" name="ISYM">     2</i>
   <i name="SYMPREC">      0.00001000</i>
  </separator>
  <separator name="dos" >
   <i type="logical" name="LORBIT"> F  </i>
   <v name="RWIGS">     -1.00000000</v>
   <i type="int" name="NEDOS">   301</i>
   <i name="EMIN">     10.00000000</i>
   <i name="EMAX">    -10.00000000</i>
   <i name="EFERMI">      0.00000000</i>
  </separator>
  <separator name="writing" >
   <i type="int" name="NWRITE">     2</i>
   <i type="logical" name="LWAVE"> F  </i>
   <i type="logical" name="LCHARG"> F  </i>
   <i type="logical" name="LPARD"> F  </i>
   <i type="logical" name="LVTOT"> F  </i>
   <i type="logical" name="LVHAR"> F  </i>
   <i type="logical" name="LELF"> F  </i>
   <i type="logical" name="LOPTICS"> F  </i>
   <v name="STM">      0.00000000      0.00000000      0.00000000      0.00000000      0.00000000      0.00000000      0.00000000</v>
  </separator>
  <separator name="performance" >
   <i type="int" name="NPAR">     4</i>
   <i type="int" name="NSIM">     4</i>
   <i type="int" name="NBLK">    -1</i>
   <i type="logical" name="LPLANE"> T  </i>
   <i type="logical" name="LSCALAPACK"> F  </i>
   <i type="logical" name="LSCAAWARE"> F  </i>
   <i type="logical" name="LSCALU"> F  </i>
   <i type="logical" name="LASYNC"> F  </i>
   <i type="logical" name="LORBITALREAL"> F  </i>
  </separator>
  <separator name="miscellaneous" >
   <i type="int" name="IDIOT">     3</i>
   <i type="logical" name="LMUSIC"> F  </i>
   <v name="POMASS">     12.01100000</v>
   <v name="DARWINR">      0.00000000</v>
   <v name="DARWINV">      1.00000000</v>
   <i type="logical" name="LCORR"> T  </i>
  </separator>
  <i type="logical" name="GGA_COMPAT"> T  </i>
  <i type="logical" name="LBERRY"> F  </i>
  <i type="int" name="ICORELEVEL">     0</i>
  <i type="logical" name="LDAU"> F  </i>
  <i type="int" name="I_CONSTRAINED_M">     0</i>
  <separator name="electronic exchange-correlation" >
   <i type="string" name="GGA">--</i>
   <i type="int" name="VOSKOWN">     0</i>
   <i type="logical" name="LHFCALC"> F  </i>
   <i type="string" name="PRECFOCK"></i>
   <i type="logical" name="LSYMGRAD"> F  </i>
   <i type="logical" name="LHFONE"> F  </i>
   <i type="logical" name="LRHFCALC"> F  </i>
   <i type="logical" name="LTHOMAS"> F  </i>
   <i type="logical" name="LMODELHF"> F  </i>
   <i name="ENCUT4O">     -1.00000000</i>
   <i type="int" name="EXXOEP">     0</i>
   <i type="int" name="FOURORBIT">     0</i>
   <i name="AEXX">      0.00000000</i>
   <i name="HFALPHA">      0.00000000</i>
   <i name="MCALPHA">      0.00000000</i>
   <i name="ALDAX">      1.00000000</i>
   <i name="AGGAX">      1.00000000</i>
   <i name="ALDAC">      1.00000000</i>
   <i name="AGGAC">      1.00000000</i>
   <i type="int" name="NKREDX">     1</i>
   <i type="int" name="NKREDY">     1</i>
   <i type="int" name="NKREDZ">     1</i>
   <i type="logical" name="SHIFTRED"> F  </i>
   <i type="logical" name="ODDONLY"> F  </i>
   <i type="logical" name="EVENONLY"> F  </i>
   <i type="int" name="LMAXFOCK">     0</i>
   <i type="int" name="NMAXFOCKAE">     0</i>
   <i type="logical" name="LFOCKAEDFT"> F  </i>
   <i name="HFSCREEN">      0.00000000</i>
   <i name="HFSCREENC">      0.00000000</i>
   <i type="int" name="NBANDSGWLOW">     0</i>
  </separator>
  <separator name="vdW DFT" >
   <i type="logical" name="LUSE_VDW"> F  </i>
   <i name="Zab_VDW">     -0.84910000</i>
   <i name="PARAM1">      0.12340000</i>
   <i name="PARAM2">      1.00000000</i>
   <i name="PARAM3">      0.00000000</i>
  </separator>
  <separator name="model GW" >
   <i type="int" name="MODEL_GW">     0</i>
   <i name="MODEL_EPS0">     31.62568521</i>
   <i name="MODEL_ALPHA">      1.00000000</i>
  </separator>
  <separator name="linear response parameters" >
   <i type="logical" name="LEPSILON"> F  </i>
   <i type="logical" name="LRPA"> F  </i>
   <i type="logical" name="LNABLA"> F  </i>
   <i type="logical" name="LVEL"> F  </i>
   <i type="int" name="KINTER">     0</i>
   <i name="CSHIFT">      0.10000000</i>
   <i name="OMEGAMAX">     -1.00000000</i>
   <i name="DEG_THRESHOLD">      0.00200000</i>
  </separator>
  <separator name="orbital magnetization" >
   <i type="logical" name="NUCIND"> F  </i>
   <v name="MAGPOS">      0.00000000      0.00000000      0.00000000</v>
   <i type="logical" name="LNICSALL"> T  </i>
   <i type="logical" name="ORBITALMAG"> F  </i>
   <i type="logical" name="LMAGBLOCH"> F  </i>
   <i type="logical" name="LCHIMAG"> F  </i>
   <i type="logical" name="LGAUGE"> T  </i>
   <i type="int" name="MAGATOM">     0</i>
   <v name="MAGDIPOL">      0.00000000      0.00000000      0.00000000</v>
   <v name="AVECCONST">      0.00000000      0.00000000      0.00000000</v>
  </separator>
  <separator name="response functions" >
   <i type="logical" name="LADDER"> F  </i>
   <i type="logical" name="LFXC"> F  </i>
   <i type="logical" name="LHARTREE"> T  </i>
   <i type="int" name="IBSE">     0</i>
   <i type="logical" name="LTCTE"> F  </i>
   <i type="logical" name="LTETE"> F  </i>
   <i type="logical" name="LTRIPLET"> F  </i>
   <i type="logical" name="LFXCEPS"> F  </i>
   <i type="logical" name="LFXHEG"> F  </i>
   <i type="logical" name="L2ORDER"> F  </i>
   <i type="logical" name="LUSEW"> F  </i>
   <i name="ENCUTGW">     -2.00000000</i>
   <i name="ENCUTGWSOFT">     -2.00000000</i>
   <i name="ENCUTLF">     -1.00000000</i>
   <i type="int" name="LMAXMP2">    -1</i>
   <i name="SCISSOR">      0.00000000</i>
   <i type="int" name="NOMEGA">     0</i>
   <i type="int" name="NOMEGAR">     0</i>
   <i type="int" name="NBANDSGW">    -1</i>
   <i type="int" name="NBANDSO">    -1</i>
   <i type="int" name="NBANDSV">    -1</i>
   <i type="int" name="NELM">   100</i>
   <i type="int" name="DIM">     3</i>
   <i type="int" name="ANTIRES">     0</i>
   <i name="OMEGAMAX">    -30.00000000</i>
   <i name="OMEGAMIN">    -30.00000000</i>
   <i name="OMEGATL">   -200.00000000</i>
   <i type="int" name="OMEGAGRID">     0</i>
   <i name="CSHIFT">     -0.10000000</i>
   <i type="logical" name="SELFENERGY"> F  </i>
   <i type="logical" name="LSPECTRAL"> F  </i>
   <i type="logical" name="ODDONLYGW"> F  </i>
   <i type="logical" name="EVENONLYGW"> F  </i>
   <i type="int" name="NKREDLFX">     1</i>
   <i type="int" name="NKREDLFY">     1</i>
   <i type="int" name="NKREDLFZ">     1</i>
   <i type="int" name="MAXMEM">  1800</i>
   <i type="int" name="TELESCOPE">     0</i>
   <i type="int" name="TAUPAR">     1</i>
  </separator>
  <separator name="External order field" >
   <i name="OFIELD_KAPPA">      0.00000000</i>
   <v name="OFIELD_K">      0.00000000      0.00000000      0.00000000</v>
   <i name="OFIELD_Q6_NEAR">      0.00000000</i>
   <i name="OFIELD_Q6_FAR">      0.00000000</i>
   <i name="OFIELD_A">      0.00000000</i>
  </separator>
 </parameters>
 <atominfo>
  <atoms>       4 </atoms>
  <types>       1 </types>
  <array name="atoms" >
   <dimension dim="1">ion</dimension>
   <field type="string">element</field>
   <field type="int">atomtype</field>
   <set>
    <rc><c>C </c><c>   1</c></rc>
    <rc><c>C </c><c>   1</c></rc>
    <rc><c>C </c><c>   1</c></rc>
    <rc><c>C </c><c>   1</c></rc>
   </set>
  </array>
  <array name="atomtypes" >
   <dimension dim="1">type</dimension>
   <field type="int">atomspertype</field>
   <field type="string">element</field>
   <field>mass</field>
   <field>valence</field>
   <field type="string">pseudopotential</field>
   <set>
    <rc><c>   4</c><c>C </c><c>     12.01100000</c><c>      4.00000000</c><c> PAW_PBE C 08Apr2002                    </c></rc>
   </set>
  </array>
 </atominfo>
 <structure name="initialpos" >
  <crystal>
   <varray name="basis" >
    <v>       4.25854225       0.00000000       0.00000000 </v>
    <v>       0.00000000       2.51677109       0.00000000 </v>
    <v>       0.00000000       0.00000000      19.67179581 </v>
   </varray>
   <i name="volume">    210.83790140 </i>
   <varray name="rec_basis" >
    <v>       0.23482214       0.00000000       0.00000000 </v>
    <v>       0.00000000       0.39733451       0.00000000 </v>
    <v>       0.00000000       0.00000000       0.05083420 </v>
   </varray>
  </crystal>
  <varray name="positions" >
   <v>       0.00051919       0.00000000       0.00000000 </v>
   <v>       0.16614747       0.50000000       0.00000000 </v>
   <v>       0.50051919       0.50000000       0.00000000 </v>
   <v>       0.66614747       0.00000000       0.00000000 </v>
  </varray>
 </structure>
 <calculation>
  <scstep>
   <time name="dav">  317.28  319.19</time>
   <time name="total">  320.03  330.60</time>
   <energy>
    <i name="alphaZ">      6.18334092 </i>
    <i name="ewald">   2476.51893419 </i>
    <i name="hartreedc">  -2905.20367334 </i>
    <i name="XCdc">     54.87297532 </i>
    <i name="pawpsdc">    151.32577238 </i>
    <i name="pawaedc">   -155.92769107 </i>
    <i name="eentropy">     -0.00109813 </i>
    <i name="bandstr">    -28.89838692 </i>
    <i name="atom">    588.62352690 </i>
    <i name="e_fr_energy">    187.49370027 </i>
    <i name="e_wo_entrp">    187.49479840 </i>
    <i name="e_0_energy">    187.49424933 </i>
   </energy>
  </scstep>
  <scstep>
   <time name="dav">  482.96  486.55</time>
   <time name="total">  482.97  486.57</time>
   <energy>
    <i name="e_fr_energy">     -9.26344884 </i>
    <i name="e_wo_entrp">     -9.26323261 </i>
    <i name="e_0_energy">     -9.26334073 </i>
   </energy>
  </scstep>
  <scstep>
   <time name="dav">  368.11  371.03</time>
   <time name="total">  401.35  404.56</time>
   <energy>
    <i name="e_fr_energy">    -38.19397255 </i>
    <i name="e_wo_entrp">    -38.19397254 </i>
    <i name="e_0_energy">    -38.19397255 </i>
   </energy>
  </scstep>
  <scstep>
   <time name="diag">   86.67   87.21</time>
   <time name="diis">  368.89  371.38</time>
   <time name="orth">    3.07    3.07</time>
   <time name="total">  494.90  498.31</time>
   <energy>
    <i name="e_fr_energy">    -37.60896256 </i>
    <i name="e_wo_entrp">    -37.60896242 </i>
    <i name="e_0_energy">    -37.60896249 </i>
   </energy>
  </scstep>
  <scstep>
   <time name="diag">   86.54   87.22</time>
   <time name="diis">  365.41  368.48</time>
   <time name="orth">    3.08    3.09</time>
   <time name="total">  491.21  496.44</time>
   <energy>
    <i name="e_fr_energy">    -36.89125320 </i>
    <i name="e_wo_entrp">    -36.89125280 </i>
    <i name="e_0_energy">    -36.89125300 </i>
   </energy>
  </scstep>
  <scstep>
   <time name="diag">   86.47   87.15</time>
   <time name="diis">  399.07  402.28</time>
   <time name="orth">    3.07    3.09</time>
   <time name="total">  524.80  529.08</time>
   <energy>
    <i name="e_fr_energy">    -36.89314592 </i>
    <i name="e_wo_entrp">    -36.89314553 </i>
    <i name="e_0_energy">    -36.89314572 </i>
   </energy>
  </scstep>
  <scstep>
   <time name="diag">   86.72   87.12</time>
   <time name="diis">  364.67  366.17</time>
   <time name="orth">    3.07    3.07</time>
   <time name="total">  490.52  492.76</time>
   <energy>
    <i name="e_fr_energy">    -36.88415039 </i>
    <i name="e_wo_entrp">    -36.88415008 </i>
    <i name="e_0_energy">    -36.88415024 </i>
   </energy>
  </scstep>
  <scstep>
   <time name="diag">   86.48   87.14</time>
   <time name="diis">  367.58  368.46</time>
   <time name="orth">    3.07    3.07</time>
   <time name="total">  493.66  495.22</time>
   <energy>
    <i name="e_fr_energy">    -36.87907195 </i>
    <i name="e_wo_entrp">    -36.87907161 </i>
    <i name="e_0_energy">    -36.87907178 </i>
   </energy>
  </scstep>
  <scstep>
   <time name="diag">   86.84   87.13</time>
   <time name="diis">  351.52  353.26</time>
   <time name="orth">    3.07    3.07</time>
   <time name="total">  477.36  479.85</time>
   <energy>
    <i name="e_fr_energy">    -36.87892543 </i>
    <i name="e_wo_entrp">    -36.87892504 </i>
    <i name="e_0_energy">    -36.87892523 </i>
   </energy>
  </scstep>
  <scstep>
   <time name="diag">   86.16   87.10</time>
   <time name="diis">  349.55  353.39</time>
   <time name="orth">    3.07    3.07</time>
   <time name="total">  474.76  480.04</time>
   <energy>
    <i name="e_fr_energy">    -36.87884692 </i>
    <i name="e_wo_entrp">    -36.87884656 </i>
    <i name="e_0_energy">    -36.87884674 </i>
   </energy>
  </scstep>
  <scstep>
   <time name="diag">   86.15   87.21</time>
   <time name="diis">  352.15  355.54</time>
   <time name="orth">    3.08    3.10</time>
   <time name="total">  477.59  482.36</time>
   <energy>
    <i name="e_fr_energy">    -36.88118333 </i>
    <i name="e_wo_entrp">    -36.88118298 </i>
    <i name="e_0_energy">    -36.88118315 </i>
   </energy>
  </scstep>
  <scstep>
   <time name="diag">   86.48   87.10</time>
   <time name="diis">  350.16  354.40</time>
   <time name="orth">    3.07    3.09</time>
   <time name="total">  475.58  481.16</time>
   <energy>
    <i name="e_fr_energy">    -36.88166802 </i>
    <i name="e_wo_entrp">    -36.88166766 </i>
    <i name="e_0_energy">    -36.88166784 </i>
   </energy>
  </scstep>
  <scstep>
   <time name="diag">   86.73   87.11</time>
   <time name="diis">  358.11  361.36</time>
   <time name="orth">    3.07    3.07</time>
   <time name="total">  484.01  487.96</time>
   <energy>
    <i name="e_fr_energy">    -36.88191450 </i>
    <i name="e_wo_entrp">    -36.88191414 </i>
    <i name="e_0_energy">    -36.88191432 </i>
   </energy>
  </scstep>
  <scstep>
   <time name="diag">   86.51   87.14</time>
   <time name="diis">  355.84  356.24</time>
   <time name="orth">    3.07    3.09</time>
   <time name="total">  481.95  483.10</time>
   <energy>
    <i name="e_fr_energy">    -36.88199577 </i>
    <i name="e_wo_entrp">    -36.88199541 </i>
    <i name="e_0_energy">    -36.88199559 </i>
   </energy>
  </scstep>
  <scstep>
   <time name="diag">   86.99   87.15</time>
   <time name="diis">  353.85  355.93</time>
   <time name="orth">    3.07    3.09</time>
   <time name="total">  479.92  482.83</time>
   <energy>
    <i name="e_fr_energy">    -36.88200541 </i>
    <i name="e_wo_entrp">    -36.88200505 </i>
    <i name="e_0_energy">    -36.88200523 </i>
   </energy>
  </scstep>
  <scstep>
   <time name="diag">   86.46   87.20</time>
   <time name="diis">  352.80  353.16</time>
   <time name="orth">    3.06    3.09</time>
   <time name="total">  478.45  479.69</time>
   <energy>
    <i name="e_fr_energy">    -36.88201830 </i>
    <i name="e_wo_entrp">    -36.88201795 </i>
    <i name="e_0_energy">    -36.88201812 </i>
   </energy>
  </scstep>
  <scstep>
   <time name="diag">   86.84   87.11</time>
   <time name="diis">  362.54  364.59</time>
   <time name="orth">    3.07    3.09</time>
   <time name="total">  488.85  491.27</time>
   <energy>
    <i name="e_fr_energy">    -36.88202360 </i>
    <i name="e_wo_entrp">    -36.88202324 </i>
    <i name="e_0_energy">    -36.88202342 </i>
   </energy>
  </scstep>
  <scstep>
   <time name="diag">   86.88   87.10</time>
   <time name="diis">  350.50  351.80</time>
   <time name="orth">    3.08    3.09</time>
   <time name="total">  476.72  478.44</time>
   <energy>
    <i name="e_fr_energy">    -36.88202474 </i>
    <i name="e_wo_entrp">    -36.88202438 </i>
    <i name="e_0_energy">    -36.88202456 </i>
   </energy>
  </scstep>
  <scstep>
   <time name="diag">   86.56   87.16</time>
   <time name="diis">  350.89  353.91</time>
   <time name="orth">    3.09    3.10</time>
   <time name="total">  476.56  480.61</time>
   <energy>
    <i name="e_fr_energy">    -36.88202548 </i>
    <i name="e_wo_entrp">    -36.88202512 </i>
    <i name="e_0_energy">    -36.88202530 </i>
   </energy>
  </scstep>
  <scstep>
   <time name="diag">   87.01   87.12</time>
   <time name="diis">  279.29  279.77</time>
   <time name="orth">    3.09    3.09</time>
   <time name="total">  405.86  407.01</time>
   <energy>
    <i name="e_fr_energy">    -36.88202553 </i>
    <i name="e_wo_entrp">    -36.88202517 </i>
    <i name="e_0_energy">    -36.88202535 </i>
   </energy>
  </scstep>
  <scstep>
   <time name="diag">   87.05   87.13</time>
   <time name="diis">  270.41  270.81</time>
   <time name="orth">    3.09    3.09</time>
   <time name="total">  396.74  397.57</time>
   <energy>
    <i name="e_fr_energy">    -36.88202554 </i>
    <i name="e_wo_entrp">    -36.88202518 </i>
    <i name="e_0_energy">    -36.88202536 </i>
   </energy>
  </scstep>
  <scstep>
   <time name="diag">   86.97   87.10</time>
   <time name="diis">  243.01  243.37</time>
   <time name="orth">    3.09    3.09</time>
   <time name="total">  369.46  370.04</time>
   <energy>
    <i name="e_fr_energy">    -36.88202554 </i>
    <i name="e_wo_entrp">    -36.88202518 </i>
    <i name="e_0_energy">    -36.88202536 </i>
   </energy>
  </scstep>
  <scstep>
   <time name="diag">   86.81   87.13</time>
   <time name="diis">  231.79  233.18</time>
   <time name="orth">    3.08    3.09</time>
   <time name="total">  357.99  359.79</time>
   <energy>
    <i name="e_fr_energy">    -36.88202554 </i>
    <i name="e_wo_entrp">    -36.88202518 </i>
    <i name="e_0_energy">    -36.88202536 </i>
   </energy>
  </scstep>
  <scstep>
   <time name="diag">   86.47   87.14</time>
   <time name="diis">  216.49  219.05</time>
   <time name="orth">    3.09    3.11</time>
   <time name="total">  341.97  345.66</time>
   <energy>
    <i name="e_fr_energy">    -36.88202554 </i>
    <i name="e_wo_entrp">    -36.88202518 </i>
    <i name="e_0_energy">    -36.88202536 </i>
   </energy>
  </scstep>
  <scstep>
   <time name="diag">   87.01   87.17</time>
   <time name="diis">  207.63  208.00</time>
   <time name="orth">    3.08    3.09</time>
   <time name="total">  333.85  335.10</time>
   <energy>
    <i name="e_fr_energy">    -36.88202554 </i>
    <i name="e_wo_entrp">    -36.88202518 </i>
    <i name="e_0_energy">    -36.88202536 </i>
   </energy>
  </scstep>
  <scstep>
   <time name="diag">   87.03   87.21</time>
   <time name="diis">  199.87  200.84</time>
   <time name="orth">    3.07    3.07</time>
   <time name="total">  326.02  327.45</time>
   <energy>
    <i name="e_fr_energy">    -36.88202554 </i>
    <i name="e_wo_entrp">    -36.88202518 </i>
    <i name="e_0_energy">    -36.88202536 </i>
   </energy>
  </scstep>
  <scstep>
   <time name="diag">   86.67   87.22</time>
   <time name="diis">  194.63  195.19</time>
   <time name="orth">    3.09    3.09</time>
   <time name="total">  287.11  288.25</time>
   <energy>
    <i name="alphaZ">      6.18334092 </i>
    <i name="ewald">   2476.51893419 </i>
    <i name="hartreedc">  -2970.73791132 </i>
    <i name="XCdc">     57.21753327 </i>
    <i name="pawpsdc">    270.44170634 </i>
    <i name="pawaedc">   -275.56049197 </i>
    <i name="eentropy">     -0.00000036 </i>
    <i name="bandstr">   -189.56866351 </i>
    <i name="atom">    588.62352690 </i>
    <i name="e_fr_energy">    -36.88202554 </i>
    <i name="e_wo_entrp">    -36.88202518 </i>
    <i name="e_0_energy">    -36.88202536 </i>
   </energy>
  </scstep>
  <structure>
   <crystal>
    <varray name="basis" >
     <v>       4.25854225       0.00000000       0.00000000 </v>
     <v>       0.00000000       2.51677109       0.00000000 </v>
     <v>       0.00000000       0.00000000      19.67179581 </v>
    </varray>
    <i name="volume">    210.83790140 </i>
    <varray name="rec_basis" >
     <v>       0.23482214       0.00000000       0.00000000 </v>
     <v>       0.00000000       0.39733451       0.00000000 </v>
     <v>       0.00000000       0.00000000       0.05083420 </v>
    </varray>
   </crystal>
   <varray name="positions" >
    <v>       0.00051919       0.00000000       0.00000000 </v>
    <v>       0.16614747       0.50000000       0.00000000 </v>
    <v>       0.50051919       0.50000000       0.00000000 </v>
    <v>       0.66614747       0.00000000       0.00000000 </v>
   </varray>
  </structure>
  <varray name="forces" >
   <v>       0.00000691      -0.00000000       0.00000000 </v>
   <v>      -0.00000691       0.00000000      -0.00000000 </v>
   <v>       0.00000691      -0.00000000       0.00000000 </v>
   <v>      -0.00000691       0.00000000      -0.00000000 </v>
  </varray>
  <varray name="stress" >
   <v>      -0.00101233       0.00000000       0.00000000 </v>
   <v>       0.00000000     -33.05842825       0.00000000 </v>
   <v>       0.00000000       0.00000000      -0.01022580 </v>
  </varray>
  <energy>
   <i name="e_fr_energy">    -36.88202554 </i>
   <i name="e_wo_entrp">    -36.88202536 </i>
   <i name="e_0_energy">     -0.00000036 </i>
  </energy>
  <time name="totalsc">11896.1411981.55</time>
 </calculation>
 <calculation>
  <scstep>
   <time name="dav">  326.57  326.89</time>
   <time name="total">  362.83  363.16</time>
   <energy>
    <i name="alphaZ">      6.18334092 </i>
    <i name="ewald">   2476.51892849 </i>
    <i name="hartreedc">  -2970.73790879 </i>
    <i name="XCdc">     57.21753310 </i>
    <i name="pawpsdc">    270.44170630 </i>
    <i name="pawaedc">   -275.56049193 </i>
    <i name="eentropy">     -0.00000036 </i>
    <i name="bandstr">   -189.56866017 </i>
    <i name="atom">    588.62352690 </i>
    <i name="e_fr_energy">    -36.88202554 </i>
    <i name="e_wo_entrp">    -36.88202518 </i>
    <i name="e_0_energy">    -36.88202536 </i>
   </energy>
  </scstep>
  <scstep>
   <time name="diag">   87.15   87.17</time>
   <time name="diis">  227.75  227.83</time>
   <time name="orth">    3.07    3.07</time>
   <time name="total">  354.18  354.31</time>
   <energy>
    <i name="e_fr_energy">    -36.88202554 </i>
    <i name="e_wo_entrp">    -36.88202518 </i>
    <i name="e_0_energy">    -36.88202536 </i>
   </energy>
  </scstep>
  <scstep>
   <time name="diag">   87.18   87.21</time>
   <time name="diis">  230.93  230.99</time>
   <time name="orth">    3.09    3.09</time>
   <time name="total">  357.63  358.55</time>
   <energy>
    <i name="e_fr_energy">    -36.88202554 </i>
    <i name="e_wo_entrp">    -36.88202518 </i>
    <i name="e_0_energy">    -36.88202536 </i>
   </energy>
  </scstep>
  <scstep>
   <time name="diag">   87.22   87.26</time>
   <time name="diis">  215.16  215.24</time>
   <time name="orth">    3.13    3.13</time>
   <time name="total">  341.44  341.59</time>
   <energy>
    <i name="e_fr_energy">    -36.88202554 </i>
    <i name="e_wo_entrp">    -36.88202518 </i>
    <i name="e_0_energy">    -36.88202536 </i>
   </energy>
  </scstep>
  <scstep>
   <time name="diag">   86.97   87.26</time>
   <time name="diis">  203.49  204.46</time>
   <time name="orth">    3.09    3.12</time>
   <time name="total">  296.32  297.61</time>
   <energy>
    <i name="alphaZ">      6.18334092 </i>
    <i name="ewald">   2476.51892849 </i>
    <i name="hartreedc">  -2970.73790713 </i>
    <i name="XCdc">     57.21753304 </i>
    <i name="pawpsdc">    270.44169405 </i>
    <i name="pawaedc">   -275.56047970 </i>
    <i name="eentropy">     -0.00000036 </i>
    <i name="bandstr">   -189.56866176 </i>
    <i name="atom">    588.62352690 </i>
    <i name="e_fr_energy">    -36.88202554 </i>
    <i name="e_wo_entrp">    -36.88202518 </i>
    <i name="e_0_energy">    -36.88202536 </i>
   </energy>
  </scstep>
  <structure>
   <crystal>
    <varray name="basis" >
     <v>       4.25854225       0.00000000       0.00000000 </v>
     <v>       0.00000000       2.51677109       0.00000000 </v>
     <v>       0.00000000       0.00000000      19.67179581 </v>
    </varray>
    <i name="volume">    210.83790140 </i>
    <varray name="rec_basis" >
     <v>       0.23482214       0.00000000       0.00000000 </v>
     <v>       0.00000000       0.39733451       0.00000000 </v>
     <v>       0.00000000       0.00000000       0.05083420 </v>
    </varray>
   </crystal>
   <varray name="positions" >
    <v>       0.00051927      -0.00000000       0.00000000 </v>
    <v>       0.16614740       0.50000000      -0.00000000 </v>
    <v>       0.50051927       0.50000000       0.00000000 </v>
    <v>       0.66614740       0.00000000      -0.00000000 </v>
   </varray>
  </structure>
  <varray name="forces" >
   <v>      -0.00002408       0.00000000       0.00000000 </v>
   <v>       0.00002408      -0.00000000      -0.00000000 </v>
   <v>      -0.00002408      -0.00000000       0.00000000 </v>
   <v>       0.00002408       0.00000000      -0.00000000 </v>
  </varray>
  <varray name="stress" >
   <v>      -0.00110964       0.00000000       0.00000000 </v>
   <v>       0.00000000     -33.05835254       0.00000000 </v>
   <v>       0.00000000       0.00000000      -0.01022276 </v>
  </varray>
  <energy>
   <i name="e_fr_energy">    -36.88202554 </i>
   <i name="e_wo_entrp">    -36.88202536 </i>
   <i name="e_0_energy">     -0.00000036 </i>
  </energy>
  <time name="totalsc"> 1818.55 1822.90</time>
 </calculation>
 <calculation>
  <scstep>
   <time name="dav">  329.13  329.66</time>
   <time name="total">  365.53  366.09</time>
   <energy>
    <i name="alphaZ">      6.18334092 </i>
    <i name="ewald">   2476.51893292 </i>
    <i name="hartreedc">  -2970.73790906 </i>
    <i name="XCdc">     57.21753316 </i>
    <i name="pawpsdc">    270.44169434 </i>
    <i name="pawaedc">   -275.56047999 </i>
    <i name="eentropy">     -0.00000036 </i>
    <i name="bandstr">   -189.56866438 </i>
    <i name="atom">    588.62352690 </i>
    <i name="e_fr_energy">    -36.88202554 </i>
    <i name="e_wo_entrp">    -36.88202518 </i>
    <i name="e_0_energy">    -36.88202536 </i>
   </energy>
  </scstep>
  <scstep>
   <time name="diag">   87.14   87.16</time>
   <time name="diis">  210.04  210.11</time>
   <time name="orth">    3.10    3.10</time>
   <time name="total">  336.55  336.66</time>
   <energy>
    <i name="e_fr_energy">    -36.88202554 </i>
    <i name="e_wo_entrp">    -36.88202518 </i>
    <i name="e_0_energy">    -36.88202536 </i>
   </energy>
  </scstep>
  <scstep>
   <time name="diag">   87.24   87.27</time>
   <time name="diis">  223.40  223.54</time>
   <time name="orth">    3.10    3.10</time>
   <time name="total">  350.31  350.54</time>
   <energy>
    <i name="e_fr_energy">    -36.88202554 </i>
    <i name="e_wo_entrp">    -36.88202518 </i>
    <i name="e_0_energy">    -36.88202536 </i>
   </energy>
  </scstep>
  <scstep>
   <time name="diag">   87.25   87.31</time>
   <time name="diis">  203.83  204.00</time>
   <time name="orth">    3.07    3.08</time>
   <time name="total">  330.74  331.04</time>
   <energy>
    <i name="e_fr_energy">    -36.88202554 </i>
    <i name="e_wo_entrp">    -36.88202518 </i>
    <i name="e_0_energy">    -36.88202536 </i>
   </energy>
  </scstep>
  <scstep>
   <time name="diag">   87.20   87.25</time>
   <time name="diis">  193.99  194.04</time>
   <time name="orth">    3.08    3.08</time>
   <time name="total">  320.89  321.03</time>
   <energy>
    <i name="e_fr_energy">    -36.88202554 </i>
    <i name="e_wo_entrp">    -36.88202518 </i>
    <i name="e_0_energy">    -36.88202536 </i>
   </energy>
  </scstep>
  <scstep>
   <time name="diag">   86.97   87.34</time>
   <time name="diis">  180.74  181.61</time>
   <time name="orth">    3.08    3.08</time>
   <time name="total">  307.26  308.69</time>
   <energy>
    <i name="e_fr_energy">    -36.88202554 </i>
    <i name="e_wo_entrp">    -36.88202518 </i>
    <i name="e_0_energy">    -36.88202536 </i>
   </energy>
  </scstep>
  <scstep>
   <time name="diag">   87.10   87.13</time>
   <time name="diis">  174.64  174.67</time>
   <time name="orth">    3.07    3.07</time>
   <time name="total">  301.45  301.56</time>
   <energy>
    <i name="e_fr_energy">    -36.88202554 </i>
    <i name="e_wo_entrp">    -36.88202518 </i>
    <i name="e_0_energy">    -36.88202536 </i>
   </energy>
  </scstep>
  <scstep>
   <time name="diag">   86.82   87.31</time>
   <time name="diis">  171.39  172.35</time>
   <time name="orth">    3.08    3.08</time>
   <time name="total">  297.84  299.40</time>
   <energy>
    <i name="e_fr_energy">    -36.88202554 </i>
    <i name="e_wo_entrp">    -36.88202518 </i>
    <i name="e_0_energy">    -36.88202536 </i>
   </energy>
  </scstep>
  <scstep>
   <time name="diag">   87.08   87.18</time>
   <time name="diis">  173.48  173.66</time>
   <time name="orth">    3.08    3.08</time>
   <time name="total">  266.40  266.69</time>
   <energy>
    <i name="alphaZ">      6.18334092 </i>
    <i name="ewald">   2476.51893292 </i>
    <i name="hartreedc">  -2970.73791338 </i>
    <i name="XCdc">     57.21753334 </i>
    <i name="pawpsdc">    270.44170964 </i>
    <i name="pawaedc">   -275.56049538 </i>
    <i name="eentropy">     -0.00000036 </i>
    <i name="bandstr">   -189.56866015 </i>
    <i name="atom">    588.62352690 </i>
    <i name="e_fr_energy">    -36.88202554 </i>
    <i name="e_wo_entrp">    -36.88202518 </i>
    <i name="e_0_energy">    -36.88202536 </i>
   </energy>
  </scstep>
  <structure>
   <crystal>
    <varray name="basis" >
     <v>       4.25854225       0.00000000       0.00000000 </v>
     <v>       0.00000000       2.51677109       0.00000000 </v>
     <v>       0.00000000       0.00000000      19.67179581 </v>
    </varray>
    <i name="volume">    210.83790140 </i>
    <varray name="rec_basis" >
     <v>       0.23482214       0.00000000       0.00000000 </v>
     <v>       0.00000000       0.39733451       0.00000000 </v>
     <v>       0.00000000       0.00000000       0.05083420 </v>
    </varray>
   </crystal>
   <varray name="positions" >
    <v>       0.00051921      -0.00000000       0.00000000 </v>
    <v>       0.16614746       0.50000000      -0.00000000 </v>
    <v>       0.50051921       0.50000000       0.00000000 </v>
    <v>       0.66614746       0.00000000      -0.00000000 </v>
   </varray>
  </structure>
  <varray name="forces" >
   <v>      -0.00000333       0.00000000       0.00000000 </v>
   <v>       0.00000333       0.00000000      -0.00000000 </v>
   <v>      -0.00000333      -0.00000000       0.00000000 </v>
   <v>       0.00000333       0.00000000      -0.00000000 </v>
  </varray>
  <varray name="stress" >
   <v>      -0.00103718       0.00000000       0.00000000 </v>
   <v>       0.00000000     -33.05838906       0.00000000 </v>
   <v>       0.00000000       0.00000000      -0.01021828 </v>
  </varray>
  <energy>
   <i name="e_fr_energy">    -36.88202554 </i>
   <i name="e_wo_entrp">    -36.88202536 </i>
   <i name="e_0_energy">     -0.00000036 </i>
  </energy>
  <time name="totalsc"> 2984.53 2989.56</time>
 </calculation>
 <calculation>
  <scstep>
   <time name="dav">  271.79  273.63</time>
   <time name="total">  308.32  310.26</time>
   <energy>
    <i name="alphaZ">      6.18334092 </i>
    <i name="ewald">   2476.51893363 </i>
    <i name="hartreedc">  -2970.73791403 </i>
    <i name="XCdc">     57.21753337 </i>
    <i name="pawpsdc">    270.44171019 </i>
    <i name="pawaedc">   -275.56049594 </i>
    <i name="eentropy">     -0.00000036 </i>
    <i name="bandstr">   -189.56866023 </i>
    <i name="atom">    588.62352690 </i>
    <i name="e_fr_energy">    -36.88202554 </i>
    <i name="e_wo_entrp">    -36.88202518 </i>
    <i name="e_0_energy">    -36.88202536 </i>
   </energy>
  </scstep>
  <scstep>
   <time name="diag">   87.02   87.19</time>
   <time name="diis">  149.33  149.48</time>
   <time name="orth">    3.09    3.10</time>
   <time name="total">  276.08  276.42</time>
   <energy>
    <i name="e_fr_energy">    -36.88202554 </i>
    <i name="e_wo_entrp">    -36.88202518 </i>
    <i name="e_0_energy">    -36.88202536 </i>
   </energy>
  </scstep>
  <scstep>
   <time name="diag">   86.74   87.19</time>
   <time name="diis">  150.44  151.24</time>
   <time name="orth">    3.08    3.08</time>
   <time name="total">  276.74  278.20</time>
   <energy>
    <i name="e_fr_energy">    -36.88202554 </i>
    <i name="e_wo_entrp">    -36.88202518 </i>
    <i name="e_0_energy">    -36.88202536 </i>
   </energy>
  </scstep>
  <scstep>
   <time name="diag">   86.66   87.21</time>
   <time name="diis">  148.74  149.79</time>
   <time name="orth">    3.09    3.10</time>
   <time name="total">  274.86  276.73</time>
   <energy>
    <i name="e_fr_energy">    -36.88202554 </i>
    <i name="e_wo_entrp">    -36.88202518 </i>
    <i name="e_0_energy">    -36.88202536 </i>
   </energy>
  </scstep>
  <scstep>
   <time name="diag">   86.47   87.22</time>
   <time name="diis">  137.58  138.72</time>
   <time name="orth">    3.07    3.09</time>
   <time name="total">  229.84  231.78</time>
   <energy>
    <i name="alphaZ">      6.18334092 </i>
    <i name="ewald">   2476.51893363 </i>
    <i name="hartreedc">  -2970.73791159 </i>
    <i name="XCdc">     57.21753326 </i>
    <i name="pawpsdc">    270.44170645 </i>
    <i name="pawaedc">   -275.56049215 </i>
    <i name="eentropy">     -0.00000036 </i>
    <i name="bandstr">   -189.56866260 </i>
    <i name="atom">    588.62352690 </i>
    <i name="e_fr_energy">    -36.88202554 </i>
    <i name="e_wo_entrp">    -36.88202518 </i>
    <i name="e_0_energy">    -36.88202536 </i>
   </energy>
  </scstep>
  <structure>
   <crystal>
    <varray name="basis" >
     <v>       4.25854225       0.00000000       0.00000000 </v>
     <v>       0.00000000       2.51677109       0.00000000 </v>
     <v>       0.00000000       0.00000000      19.67179581 </v>
    </varray>
    <i name="volume">    210.83790140 </i>
    <varray name="rec_basis" >
     <v>       0.23482214       0.00000000       0.00000000 </v>
     <v>       0.00000000       0.39733451       0.00000000 </v>
     <v>       0.00000000       0.00000000       0.05083420 </v>
    </varray>
   </crystal>
   <varray name="positions" >
    <v>       0.00051920      -0.00000000       0.00000000 </v>
    <v>       0.16614747       0.50000000      -0.00000000 </v>
    <v>       0.50051920       0.50000000       0.00000000 </v>
    <v>       0.66614747       0.00000000      -0.00000000 </v>
   </varray>
  </structure>
  <varray name="forces" >
   <v>       0.00000637       0.00000000       0.00000000 </v>
   <v>      -0.00000637      -0.00000000      -0.00000000 </v>
   <v>       0.00000637       0.00000000       0.00000000 </v>
   <v>      -0.00000637      -0.00000000      -0.00000000 </v>
  </varray>
  <varray name="stress" >
   <v>      -0.00098827       0.00000000       0.00000000 </v>
   <v>       0.00000000     -33.05843314       0.00000000 </v>
   <v>       0.00000000       0.00000000      -0.01022875 </v>
  </varray>
  <energy>
   <i name="e_fr_energy">    -36.88202554 </i>
   <i name="e_wo_entrp">    -36.88202536 </i>
   <i name="e_0_energy">     -0.00000036 </i>
  </energy>
  <time name="totalsc"> 1472.18 1480.56</time>
 </calculation>
 <calculation>
  <scstep>
   <time name="dav">  263.60  265.23</time>
   <time name="total">  299.60  301.53</time>
   <energy>
    <i name="alphaZ">      6.18334092 </i>
    <i name="ewald">   2476.51893316 </i>
    <i name="hartreedc">  -2970.73791137 </i>
    <i name="XCdc">     57.21753325 </i>
    <i name="pawpsdc">    270.44170644 </i>
    <i name="pawaedc">   -275.56049215 </i>
    <i name="eentropy">     -0.00000036 </i>
    <i name="bandstr">   -189.56866234 </i>
    <i name="atom">    588.62352690 </i>
    <i name="e_fr_energy">    -36.88202554 </i>
    <i name="e_wo_entrp">    -36.88202518 </i>
    <i name="e_0_energy">    -36.88202536 </i>
   </energy>
  </scstep>
  <scstep>
   <time name="diag">   86.83   87.24</time>
   <time name="diis">  138.11  138.42</time>
   <time name="orth">    3.10    3.11</time>
   <time name="total">  264.33  265.26</time>
   <energy>
    <i name="e_fr_energy">    -36.88202554 </i>
    <i name="e_wo_entrp">    -36.88202518 </i>
    <i name="e_0_energy">    -36.88202536 </i>
   </energy>
  </scstep>
  <scstep>
   <time name="diag">   87.17   87.23</time>
   <time name="diis">  142.03  142.70</time>
   <time name="orth">    3.07    3.09</time>
   <time name="total">  268.64  269.60</time>
   <energy>
    <i name="e_fr_energy">    -36.88202554 </i>
    <i name="e_wo_entrp">    -36.88202518 </i>
    <i name="e_0_energy">    -36.88202536 </i>
   </energy>
  </scstep>
  <scstep>
   <time name="diag">   86.87   87.27</time>
   <time name="diis">  135.63  136.27</time>
   <time name="orth">    3.07    3.07</time>
   <time name="total">  261.76  263.00</time>
   <energy>
    <i name="e_fr_energy">    -36.88202554 </i>
    <i name="e_wo_entrp">    -36.88202518 </i>
    <i name="e_0_energy">    -36.88202536 </i>
   </energy>
  </scstep>
  <scstep>
   <time name="diag">   86.81   87.25</time>
   <time name="diis">  119.35  119.91</time>
   <time name="orth">    3.07    3.10</time>
   <time name="total">  211.96  213.02</time>
   <energy>
    <i name="alphaZ">      6.18334092 </i>
    <i name="ewald">   2476.51893316 </i>
    <i name="hartreedc">  -2970.73791215 </i>
    <i name="XCdc">     57.21753328 </i>
    <i name="pawpsdc">    270.44170585 </i>
    <i name="pawaedc">   -275.56049156 </i>
    <i name="eentropy">     -0.00000036 </i>
    <i name="bandstr">   -189.56866159 </i>
    <i name="atom">    588.62352690 </i>
    <i name="e_fr_energy">    -36.88202554 </i>
    <i name="e_wo_entrp">    -36.88202518 </i>
    <i name="e_0_energy">    -36.88202536 </i>
   </energy>
  </scstep>
  <structure>
   <crystal>
    <varray name="basis" >
     <v>       4.25854225       0.00000000       0.00000000 </v>
     <v>       0.00000000       2.51677109       0.00000000 </v>
     <v>       0.00000000       0.00000000      19.67179581 </v>
    </varray>
    <i name="volume">    210.83790140 </i>
    <varray name="rec_basis" >
     <v>       0.23482214       0.00000000       0.00000000 </v>
     <v>       0.00000000       0.39733451       0.00000000 </v>
     <v>       0.00000000       0.00000000       0.05083420 </v>
    </varray>
   </crystal>
   <varray name="positions" >
    <v>       0.00051921      -0.00000000       0.00000000 </v>
    <v>       0.16614746       0.50000000      -0.00000000 </v>
    <v>       0.50051921       0.50000000       0.00000000 </v>
    <v>       0.66614746       0.00000000      -0.00000000 </v>
   </varray>
  </structure>
  <varray name="forces" >
   <v>      -0.00000017      -0.00000000       0.00000000 </v>
   <v>       0.00000017       0.00000000       0.00000000 </v>
   <v>      -0.00000017      -0.00000000       0.00000000 </v>
   <v>       0.00000017       0.00000000       0.00000000 </v>
  </varray>
  <varray name="stress" >
   <v>      -0.00102524       0.00000000       0.00000000 </v>
   <v>       0.00000000     -33.05840067       0.00000000 </v>
   <v>       0.00000000       0.00000000      -0.01021633 </v>
  </varray>
  <energy>
   <i name="e_fr_energy">    -36.88202554 </i>
   <i name="e_wo_entrp">    -36.88202536 </i>
   <i name="e_0_energy">     -0.00000036 </i>
  </energy>
  <time name="totalsc"> 1407.14 1413.57</time>
  <eigenvalues>
   <array>
    <dimension dim="1">band</dimension>
    <dimension dim="2">kpoint</dimension>
    <dimension dim="3">spin</dimension>
    <field>eigene</field>
    <field>occ</field>
    <set>
     <set comment="spin 1">
      <set comment="kpoint 1">
       <r>  -22.1154    1.0000 </r>
       <r>  -16.7664    1.0000 </r>
       <r>  -15.8850    1.0000 </r>
       <r>  -10.2522    1.0000 </r>
       <r>   -9.4165    1.0000 </r>
       <r>   -5.9555    1.0000 </r>
       <r>   -5.7473    1.0000 </r>
       <r>   -4.9452    1.0000 </r>
       <r>   -1.1271    0.0000 </r>
       <r>    0.5405    0.0000 </r>
       <r>    1.3392    0.0000 </r>
       <r>    1.7305    0.0000 </r>
      </set>
      <set comment="kpoint 2">
       <r>  -22.1051    1.0000 </r>
       <r>  -16.9558    1.0000 </r>
       <r>  -15.6805    1.0000 </r>
       <r>  -10.2399    1.0000 </r>
       <r>   -9.4061    1.0000 </r>
       <r>   -5.9790    1.0000 </r>
       <r>   -5.7880    1.0000 </r>
       <r>   -5.0146    1.0000 </r>
       <r>   -1.0427    0.0000 </r>
       <r>    0.5545    0.0000 </r>
       <r>    1.3534    0.0000 </r>
       <r>    1.7448    0.0000 </r>
      </set>
      <set comment="kpoint 3">
       <r>  -22.0740    1.0000 </r>
       <r>  -17.3166    1.0000 </r>
       <r>  -15.2747    1.0000 </r>
       <r>  -10.2030    1.0000 </r>
       <r>   -9.3751    1.0000 </r>
       <r>   -6.0482    1.0000 </r>
       <r>   -5.9086    1.0000 </r>
       <r>   -5.2060    1.0000 </r>
       <r>   -0.8063    0.0000 </r>
       <r>    0.5966    0.0000 </r>
       <r>    1.3959    0.0000 </r>
       <r>    1.7879    0.0000 </r>
      </set>
      <set comment="kpoint 4">
       <r>  -22.0223    1.0000 </r>
       <r>  -17.7064    1.0000 </r>
       <r>  -14.8100    1.0000 </r>
       <r>  -10.1416    1.0000 </r>
       <r>   -9.3235    1.0000 </r>
       <r>   -6.1592    1.0000 </r>
       <r>   -6.1047    1.0000 </r>
       <r>   -5.4833    1.0000 </r>
       <r>   -0.4547    0.0000 </r>
       <r>    0.6667    0.0000 </r>
       <r>    1.4668    0.0000 </r>
       <r>    1.8597    0.0000 </r>
      </set>
      <set comment="kpoint 5">
       <r>  -21.9500    1.0000 </r>
       <r>  -18.0942    1.0000 </r>
       <r>  -14.3181    1.0000 </r>
       <r>  -10.0558    1.0000 </r>
       <r>   -9.2516    1.0000 </r>
       <r>   -6.3700    1.0000 </r>
       <r>   -6.3064    1.0000 </r>
       <r>   -5.8114    1.0000 </r>
       <r>   -0.0237    0.0000 </r>
       <r>    0.7649    0.0000 </r>
       <r>    1.5660    0.0000 </r>
       <r>    1.9602    0.0000 </r>
      </set>
      <set comment="kpoint 6">
       <r>  -21.8570    1.0000 </r>
       <r>  -18.4709    1.0000 </r>
       <r>  -13.8085    1.0000 </r>
       <r>   -9.9457    1.0000 </r>
       <r>   -9.1598    1.0000 </r>
       <r>   -6.6964    1.0000 </r>
       <r>   -6.4832    1.0000 </r>
       <r>   -6.1654    1.0000 </r>
       <r>    0.4604    0.0000 </r>
       <r>    0.8911    0.0000 </r>
       <r>    1.6935    0.0000 </r>
       <r>    2.0893    0.0000 </r>
      </set>
      <set comment="kpoint 7">
       <r>  -21.7435    1.0000 </r>
       <r>  -18.8331    1.0000 </r>
       <r>  -13.2858    1.0000 </r>
       <r>   -9.8115    1.0000 </r>
       <r>   -9.0486    1.0000 </r>
       <r>   -7.0755    1.0000 </r>
       <r>   -6.6826    1.0000 </r>
       <r>   -6.5290    1.0000 </r>
       <r>    0.9796    0.0000 </r>
       <r>    1.0453    0.0000 </r>
       <r>    1.8492    0.0000 </r>
       <r>    2.2472    0.0000 </r>
      </set>
      <set comment="kpoint 8">
       <r>  -21.6096    1.0000 </r>
       <r>  -19.1791    1.0000 </r>
       <r>  -12.7528    1.0000 </r>
       <r>   -9.6535    1.0000 </r>
       <r>   -8.9187    1.0000 </r>
       <r>   -7.4987    1.0000 </r>
       <r>   -6.8979    1.0000 </r>
       <r>   -6.8917    1.0000 </r>
       <r>    1.2275    0.0000 </r>
       <r>    1.5215    0.0000 </r>
       <r>    2.0331    0.0000 </r>
       <r>    2.4338    0.0000 </r>
      </set>
      <set comment="kpoint 9">
       <r>  -21.4553    1.0000 </r>
       <r>  -19.5077    1.0000 </r>
       <r>  -12.2120    1.0000 </r>
       <r>   -9.4719    1.0000 </r>
       <r>   -8.7708    1.0000 </r>
       <r>   -7.9581    1.0000 </r>
       <r>   -7.2468    1.0000 </r>
       <r>   -7.1229    1.0000 </r>
       <r>    1.4376    0.0000 </r>
       <r>    2.0768    0.0000 </r>
       <r>    2.2450    0.0000 </r>
       <r>    2.6491    0.0000 </r>
      </set>
      <set comment="kpoint 10">
       <r>  -21.2808    1.0000 </r>
       <r>  -19.8183    1.0000 </r>
       <r>  -11.6657    1.0000 </r>
       <r>   -9.2671    1.0000 </r>
       <r>   -8.6059    1.0000 </r>
       <r>   -8.4463    1.0000 </r>
       <r>   -7.5899    1.0000 </r>
       <r>   -7.3522    1.0000 </r>
       <r>    1.6756    0.0000 </r>
       <r>    2.4849    0.0000 </r>
       <r>    2.6372    0.0000 </r>
       <r>    2.8931    0.0000 </r>
      </set>
      <set comment="kpoint 11">
       <r>  -21.0862    1.0000 </r>
       <r>  -20.1104    1.0000 </r>
       <r>  -11.1167    1.0000 </r>
       <r>   -9.0396    1.0000 </r>
       <r>   -8.9568    1.0000 </r>
       <r>   -8.4253    1.0000 </r>
       <r>   -7.9177    1.0000 </r>
       <r>   -7.5812    1.0000 </r>
       <r>    1.9414    0.0000 </r>
       <r>    2.7523    0.0000 </r>
       <r>    3.1657    0.0000 </r>
       <r>    3.1922    0.0000 </r>
      </set>
      <set comment="kpoint 12">
       <r>  -20.8716    1.0000 </r>
       <r>  -20.3835    1.0000 </r>
       <r>  -10.5678    1.0000 </r>
       <r>   -9.4838    1.0000 </r>
       <r>   -8.7901    1.0000 </r>
       <r>   -8.2305    1.0000 </r>
       <r>   -8.2280    1.0000 </r>
       <r>   -7.8060    1.0000 </r>
       <r>    2.2348    0.0000 </r>
       <r>    2.9036    0.0000 </r>
       <r>    3.0465    0.0000 </r>
       <r>    3.4671    0.0000 </r>
      </set>
      <set comment="kpoint 13">
       <r>  -20.6373    1.0000 </r>
       <r>  -20.6373    1.0000 </r>
       <r>  -10.0222    1.0000 </r>
       <r>  -10.0222    1.0000 </r>
       <r>   -8.5193    1.0000 </r>
       <r>   -8.5193    1.0000 </r>
       <r>   -8.0233    1.0000 </r>
       <r>   -8.0233    1.0000 </r>
       <r>    2.5557    0.0000 </r>
       <r>    2.5557    0.0000 </r>
       <r>    3.3634    0.0000 </r>
       <r>    3.3634    0.0000 </r>
      </set>
      <set comment="kpoint 14">
       <r>  -22.1023    1.0000 </r>
       <r>  -16.7551    1.0000 </r>
       <r>  -15.8744    1.0000 </r>
       <r>  -10.2366    1.0000 </r>
       <r>   -9.4753    1.0000 </r>
       <r>   -6.0097    1.0000 </r>
       <r>   -5.7791    1.0000 </r>
       <r>   -4.9293    1.0000 </r>
       <r>   -1.1329    0.0000 </r>
       <r>    0.5583    0.0000 </r>
       <r>    1.3573    0.0000 </r>
       <r>    1.7487    0.0000 </r>
      </set>
      <set comment="kpoint 15">
       <r>  -22.0919    1.0000 </r>
       <r>  -16.9444    1.0000 </r>
       <r>  -15.6701    1.0000 </r>
       <r>  -10.2243    1.0000 </r>
       <r>   -9.4649    1.0000 </r>
       <r>   -6.0365    1.0000 </r>
       <r>   -5.8158    1.0000 </r>
       <r>   -4.9988    1.0000 </r>
       <r>   -1.0484    0.0000 </r>
       <r>    0.5723    0.0000 </r>
       <r>    1.3714    0.0000 </r>
       <r>    1.7631    0.0000 </r>
      </set>
      <set comment="kpoint 16">
       <r>  -22.0609    1.0000 </r>
       <r>  -17.3049    1.0000 </r>
       <r>  -15.2646    1.0000 </r>
       <r>  -10.1874    1.0000 </r>
       <r>   -9.4338    1.0000 </r>
       <r>   -6.1174    1.0000 </r>
       <r>   -5.9226    1.0000 </r>
       <r>   -5.1907    1.0000 </r>
       <r>   -0.8120    0.0000 </r>
       <r>    0.6144    0.0000 </r>
       <r>    1.4140    0.0000 </r>
       <r>    1.8062    0.0000 </r>
      </set>
      <set comment="kpoint 17">
       <r>  -22.0092    1.0000 </r>
       <r>  -17.6946    1.0000 </r>
       <r>  -14.8004    1.0000 </r>
       <r>  -10.1261    1.0000 </r>
       <r>   -9.3820    1.0000 </r>
       <r>   -6.2568    1.0000 </r>
       <r>   -6.0873    1.0000 </r>
       <r>   -5.4683    1.0000 </r>
       <r>   -0.4606    0.0000 </r>
       <r>    0.6845    0.0000 </r>
       <r>    1.4848    0.0000 </r>
       <r>    1.8779    0.0000 </r>
      </set>
      <set comment="kpoint 18">
       <r>  -21.9368    1.0000 </r>
       <r>  -18.0821    1.0000 </r>
       <r>  -14.3092    1.0000 </r>
       <r>  -10.0403    1.0000 </r>
       <r>   -9.3100    1.0000 </r>
       <r>   -6.4699    1.0000 </r>
       <r>   -6.2832    1.0000 </r>
       <r>   -5.7967    1.0000 </r>
       <r>   -0.0303    0.0000 </r>
       <r>    0.7827    0.0000 </r>
       <r>    1.5840    0.0000 </r>
       <r>    1.9784    0.0000 </r>
      </set>
      <set comment="kpoint 19">
       <r>  -21.8439    1.0000 </r>
       <r>  -18.4587    1.0000 </r>
       <r>  -13.8004    1.0000 </r>
       <r>   -9.9302    1.0000 </r>
       <r>   -9.2179    1.0000 </r>
       <r>   -6.7641    1.0000 </r>
       <r>   -6.4885    1.0000 </r>
       <r>   -6.1509    1.0000 </r>
       <r>    0.4528    0.0000 </r>
       <r>    0.9089    0.0000 </r>
       <r>    1.7115    0.0000 </r>
       <r>    2.1076    0.0000 </r>
      </set>
      <set comment="kpoint 20">
       <r>  -21.7304    1.0000 </r>
       <r>  -18.8208    1.0000 </r>
       <r>  -13.2786    1.0000 </r>
       <r>   -9.7961    1.0000 </r>
       <r>   -9.1063    1.0000 </r>
       <r>   -7.1242    1.0000 </r>
       <r>   -6.7033    1.0000 </r>
       <r>   -6.5145    1.0000 </r>
       <r>    0.9706    0.0000 </r>
       <r>    1.0631    0.0000 </r>
       <r>    1.8672    0.0000 </r>
       <r>    2.2655    0.0000 </r>
      </set>
      <set comment="kpoint 21">
       <r>  -21.5965    1.0000 </r>
       <r>  -19.1666    1.0000 </r>
       <r>  -12.7467    1.0000 </r>
       <r>   -9.6381    1.0000 </r>
       <r>   -8.9758    1.0000 </r>
       <r>   -7.5347    1.0000 </r>
       <r>   -6.9282    1.0000 </r>
       <r>   -6.8772    1.0000 </r>
       <r>    1.2453    0.0000 </r>
       <r>    1.5108    0.0000 </r>
       <r>    2.0510    0.0000 </r>
       <r>    2.4521    0.0000 </r>
      </set>
      <set comment="kpoint 22">
       <r>  -21.4423    1.0000 </r>
       <r>  -19.4951    1.0000 </r>
       <r>  -12.2073    1.0000 </r>
       <r>   -9.4565    1.0000 </r>
       <r>   -8.8272    1.0000 </r>
       <r>   -7.9845    1.0000 </r>
       <r>   -7.2323    1.0000 </r>
       <r>   -7.1599    1.0000 </r>
       <r>    1.4555    0.0000 </r>
       <r>    2.0641    0.0000 </r>
       <r>    2.2630    0.0000 </r>
       <r>    2.6674    0.0000 </r>
      </set>
      <set comment="kpoint 23">
       <r>  -21.2678    1.0000 </r>
       <r>  -19.8056    1.0000 </r>
       <r>  -11.6627    1.0000 </r>
       <r>   -9.2518    1.0000 </r>
       <r>   -8.6615    1.0000 </r>
       <r>   -8.4653    1.0000 </r>
       <r>   -7.5752    1.0000 </r>
       <r>   -7.3942    1.0000 </r>
       <r>    1.6935    0.0000 </r>
       <r>    2.5029    0.0000 </r>
       <r>    2.6226    0.0000 </r>
       <r>    2.9114    0.0000 </r>
      </set>
      <set comment="kpoint 24">
       <r>  -21.0732    1.0000 </r>
       <r>  -20.0976    1.0000 </r>
       <r>  -11.1157    1.0000 </r>
       <r>   -9.0245    1.0000 </r>
       <r>   -8.9699    1.0000 </r>
       <r>   -8.4797    1.0000 </r>
       <r>   -7.9029    1.0000 </r>
       <r>   -7.6270    1.0000 </r>
       <r>    1.9592    0.0000 </r>
       <r>    2.7703    0.0000 </r>
       <r>    3.1762    0.0000 </r>
       <r>    3.1840    0.0000 </r>
      </set>
      <set comment="kpoint 25">
       <r>  -20.8587    1.0000 </r>
       <r>  -20.3707    1.0000 </r>
       <r>  -10.5693    1.0000 </r>
       <r>   -9.4921    1.0000 </r>
       <r>   -8.7750    1.0000 </r>
[...]
       <r>   -9.0469    1.0000 </r>
       <r>   -5.6507    1.0000 </r>
       <r>   -5.6507    1.0000 </r>
       <r>   -0.5436    0.0000 </r>
       <r>   -0.5436    0.0000 </r>
       <r>    4.8168    0.0000 </r>
       <r>    4.8168    0.0000 </r>
      </set>
      <set comment="kpoint 209">
       <r>  -18.8395    1.0000 </r>
       <r>  -17.1320    1.0000 </r>
       <r>  -13.8977    1.0000 </r>
       <r>  -12.3335    1.0000 </r>
       <r>  -12.3281    1.0000 </r>
       <r>  -10.8567    1.0000 </r>
       <r>   -6.4833    1.0000 </r>
       <r>   -4.6656    1.0000 </r>
       <r>   -0.9947    0.0000 </r>
       <r>    1.0816    0.0000 </r>
       <r>    5.0745    0.0000 </r>
       <r>    5.8636    0.0000 </r>
      </set>
      <set comment="kpoint 210">
       <r>  -18.8297    1.0000 </r>
       <r>  -17.1245    1.0000 </r>
       <r>  -13.9890    1.0000 </r>
       <r>  -12.4139    1.0000 </r>
       <r>  -12.2339    1.0000 </r>
       <r>  -10.7726    1.0000 </r>
       <r>   -6.4745    1.0000 </r>
       <r>   -4.6678    1.0000 </r>
       <r>   -1.0056    0.0000 </r>
       <r>    1.0556    0.0000 </r>
       <r>    5.0883    0.0000 </r>
       <r>    5.8798    0.0000 </r>
      </set>
      <set comment="kpoint 211">
       <r>  -18.8005    1.0000 </r>
       <r>  -17.1023    1.0000 </r>
       <r>  -14.2125    1.0000 </r>
       <r>  -12.6279    1.0000 </r>
       <r>  -11.9854    1.0000 </r>
       <r>  -10.5643    1.0000 </r>
       <r>   -6.4481    1.0000 </r>
       <r>   -4.6749    1.0000 </r>
       <r>   -1.0365    0.0000 </r>
       <r>    0.9798    0.0000 </r>
       <r>    5.1293    0.0000 </r>
       <r>    5.9280    0.0000 </r>
      </set>
      <set comment="kpoint 212">
       <r>  -18.7519    1.0000 </r>
       <r>  -17.0669    1.0000 </r>
       <r>  -14.4940    1.0000 </r>
       <r>  -12.9046    1.0000 </r>
       <r>  -11.6623    1.0000 </r>
       <r>  -10.2995    1.0000 </r>
       <r>   -6.4045    1.0000 </r>
       <r>   -4.6885    1.0000 </r>
       <r>   -1.0819    0.0000 </r>
       <r>    0.8596    0.0000 </r>
       <r>    5.1974    0.0000 </r>
       <r>    6.0071    0.0000 </r>
      </set>
      <set comment="kpoint 213">
       <r>  -18.6841    1.0000 </r>
       <r>  -17.0208    1.0000 </r>
       <r>  -14.7906    1.0000 </r>
       <r>  -13.2063    1.0000 </r>
       <r>  -11.3073    1.0000 </r>
       <r>  -10.0190    1.0000 </r>
       <r>   -6.3442    1.0000 </r>
       <r>   -4.7109    1.0000 </r>
       <r>   -1.1339    0.0000 </r>
       <r>    0.7029    0.0000 </r>
       <r>    5.2917    0.0000 </r>
       <r>    6.1158    0.0000 </r>
      </set>
      <set comment="kpoint 214">
       <r>  -18.5973    1.0000 </r>
       <r>  -16.9692    1.0000 </r>
       <r>  -15.0788    1.0000 </r>
       <r>  -13.5150    1.0000 </r>
       <r>  -10.9420    1.0000 </r>
       <r>   -9.7459    1.0000 </r>
       <r>   -6.2680    1.0000 </r>
       <r>   -4.7450    1.0000 </r>
       <r>   -1.1833    0.0000 </r>
       <r>    0.5186    0.0000 </r>
       <r>    5.4086    0.0000 </r>
       <r>    6.1824    0.0000 </r>
      </set>
      <set comment="kpoint 215">
       <r>  -18.4920    1.0000 </r>
       <r>  -16.9216    1.0000 </r>
       <r>  -15.3400    1.0000 </r>
       <r>  -13.8213    1.0000 </r>
       <r>  -10.5801    1.0000 </r>
       <r>   -9.4952    1.0000 </r>
       <r>   -6.1768    1.0000 </r>
       <r>   -4.7936    1.0000 </r>
       <r>   -1.2203    0.0000 </r>
       <r>    0.3159    0.0000 </r>
       <r>    5.5124    0.0000 </r>
       <r>    5.7838    0.0000 </r>
      </set>
      <set comment="kpoint 216">
       <r>  -18.3686    1.0000 </r>
       <r>  -16.8955    1.0000 </r>
       <r>  -15.5520    1.0000 </r>
       <r>  -14.1195    1.0000 </r>
       <r>  -10.2319    1.0000 </r>
       <r>   -9.2792    1.0000 </r>
       <r>   -6.0721    1.0000 </r>
       <r>   -4.8591    1.0000 </r>
       <r>   -1.2365    0.0000 </r>
       <r>    0.1033    0.0000 </r>
       <r>    5.3031    0.0000 </r>
       <r>    5.7894    0.0000 </r>
      </set>
      <set comment="kpoint 217">
       <r>  -18.2278    1.0000 </r>
       <r>  -16.9164    1.0000 </r>
       <r>  -15.6863    1.0000 </r>
       <r>  -14.4058    1.0000 </r>
       <r>   -9.9071    1.0000 </r>
       <r>   -9.1084    1.0000 </r>
       <r>   -5.9555    1.0000 </r>
       <r>   -4.9423    1.0000 </r>
       <r>   -1.2254    0.0000 </r>
       <r>   -0.1116    0.0000 </r>
       <r>    5.0102    0.0000 </r>
       <r>    5.8308    0.0000 </r>
      </set>
      <set comment="kpoint 218">
       <r>  -18.0708    1.0000 </r>
       <r>  -17.0037    1.0000 </r>
       <r>  -15.7218    1.0000 </r>
       <r>  -14.6771    1.0000 </r>
       <r>   -9.6149    1.0000 </r>
       <r>   -8.9920    1.0000 </r>
       <r>   -5.8292    1.0000 </r>
       <r>   -5.0427    1.0000 </r>
       <r>   -1.1830    0.0000 </r>
       <r>   -0.3217    0.0000 </r>
       <r>    4.7914    0.0000 </r>
       <r>    5.4313    0.0000 </r>
      </set>
      <set comment="kpoint 219">
       <r>  -17.8990    1.0000 </r>
       <r>  -17.1501    1.0000 </r>
       <r>  -15.6648    1.0000 </r>
       <r>  -14.9303    1.0000 </r>
       <r>   -9.3648    1.0000 </r>
       <r>   -8.9369    1.0000 </r>
       <r>   -5.6957    1.0000 </r>
       <r>   -5.1581    1.0000 </r>
       <r>   -1.1081    0.0000 </r>
       <r>   -0.5209    0.0000 </r>
       <r>    4.6627    0.0000 </r>
       <r>    5.1024    0.0000 </r>
      </set>
      <set comment="kpoint 220">
       <r>  -17.7151    1.0000 </r>
       <r>  -17.3305    1.0000 </r>
       <r>  -15.5396    1.0000 </r>
       <r>  -15.1621    1.0000 </r>
       <r>   -9.1654    1.0000 </r>
       <r>   -8.9475    1.0000 </r>
       <r>   -5.5581    1.0000 </r>
       <r>   -5.2852    1.0000 </r>
       <r>   -1.0014    0.0000 </r>
       <r>   -0.7038    0.0000 </r>
       <r>    4.6299    0.0000 </r>
       <r>    4.8540    0.0000 </r>
      </set>
      <set comment="kpoint 221">
       <r>  -17.5232    1.0000 </r>
       <r>  -17.5232    1.0000 </r>
       <r>  -15.3677    1.0000 </r>
       <r>  -15.3677    1.0000 </r>
       <r>   -9.0245    1.0000 </r>
       <r>   -9.0245    1.0000 </r>
       <r>   -5.4199    1.0000 </r>
       <r>   -5.4199    1.0000 </r>
       <r>   -0.8654    0.0000 </r>
       <r>   -0.8654    0.0000 </r>
       <r>    4.6946    0.0000 </r>
       <r>    4.6946    0.0000 </r>
      </set>
      <set comment="kpoint 222">
       <r>  -18.4353    1.0000 </r>
       <r>  -17.5778    1.0000 </r>
       <r>  -13.5343    1.0000 </r>
       <r>  -12.7487    1.0000 </r>
       <r>  -11.9985    1.0000 </r>
       <r>  -11.2555    1.0000 </r>
       <r>   -6.0418    1.0000 </r>
       <r>   -5.1282    1.0000 </r>
       <r>   -0.5077    0.0000 </r>
       <r>    0.5324    0.0000 </r>
       <r>    5.6494    0.0000 </r>
       <r>    6.4062    0.0000 </r>
      </set>
      <set comment="kpoint 223">
       <r>  -18.4258    1.0000 </r>
       <r>  -17.5691    1.0000 </r>
       <r>  -13.6261    1.0000 </r>
       <r>  -12.8372    1.0000 </r>
       <r>  -11.9011    1.0000 </r>
       <r>  -11.1661    1.0000 </r>
       <r>   -6.0343    1.0000 </r>
       <r>   -5.1255    1.0000 </r>
       <r>   -0.5248    0.0000 </r>
       <r>    0.5085    0.0000 </r>
       <r>    5.6631    0.0000 </r>
       <r>    6.4232    0.0000 </r>
      </set>
      <set comment="kpoint 224">
       <r>  -18.3972    1.0000 </r>
       <r>  -17.5434    1.0000 </r>
       <r>  -13.8516    1.0000 </r>
       <r>  -13.0567    1.0000 </r>
       <r>  -11.6591    1.0000 </r>
       <r>  -10.9448    1.0000 </r>
       <r>   -6.0119    1.0000 </r>
       <r>   -5.1179    1.0000 </r>
       <r>   -0.5741    0.0000 </r>
       <r>    0.4387    0.0000 </r>
       <r>    5.7039    0.0000 </r>
       <r>    6.4737    0.0000 </r>
      </set>
      <set comment="kpoint 225">
       <r>  -18.3496    1.0000 </r>
       <r>  -17.5010    1.0000 </r>
       <r>  -14.1378    1.0000 </r>
       <r>  -13.3385    1.0000 </r>
       <r>  -11.3466    1.0000 </r>
       <r>  -10.6618    1.0000 </r>
       <r>   -5.9750    1.0000 </r>
       <r>   -5.1065    1.0000 </r>
       <r>   -0.6504    0.0000 </r>
       <r>    0.3283    0.0000 </r>
       <r>    5.7715    0.0000 </r>
       <r>    6.5564    0.0000 </r>
      </set>
      <set comment="kpoint 226">
       <r>  -18.2835    1.0000 </r>
       <r>  -17.4430    1.0000 </r>
       <r>  -14.4440    1.0000 </r>
       <r>  -13.6442    1.0000 </r>
       <r>  -11.0060    1.0000 </r>
       <r>  -10.3587    1.0000 </r>
       <r>   -5.9244    1.0000 </r>
       <r>   -5.0931    1.0000 </r>
       <r>   -0.7455    0.0000 </r>
       <r>    0.1853    0.0000 </r>
       <r>    5.8642    0.0000 </r>
       <r>    6.6692    0.0000 </r>
      </set>
      <set comment="kpoint 227">
       <r>  -18.1991    1.0000 </r>
       <r>  -17.3713    1.0000 </r>
       <r>  -14.7499    1.0000 </r>
       <r>  -13.9553    1.0000 </r>
       <r>  -10.6592    1.0000 </r>
       <r>  -10.0581    1.0000 </r>
       <r>   -5.8614    1.0000 </r>
       <r>   -5.0803    1.0000 </r>
       <r>   -0.8498    0.0000 </r>
       <r>    0.0187    0.0000 </r>
       <r>    5.9719    0.0000 </r>
       <r>    6.4530    0.0000 </r>
      </set>
      <set comment="kpoint 228">
       <r>  -18.0971    1.0000 </r>
       <r>  -17.2890    1.0000 </r>
       <r>  -15.0437    1.0000 </r>
       <r>  -14.2622    1.0000 </r>
       <r>  -10.3202    1.0000 </r>
       <r>   -9.7747    1.0000 </r>
       <r>   -5.7874    1.0000 </r>
       <r>   -5.0712    1.0000 </r>
       <r>   -0.9530    0.0000 </r>
       <r>   -0.1621    0.0000 </r>
       <r>    5.8922    0.0000 </r>
       <r>    6.2042    0.0000 </r>
      </set>
      <set comment="kpoint 229">
       <r>  -17.9785    1.0000 </r>
       <r>  -17.2019    1.0000 </r>
       <r>  -15.3148    1.0000 </r>
       <r>  -14.5591    1.0000 </r>
       <r>   -9.9998    1.0000 </r>
       <r>   -9.5204    1.0000 </r>
       <r>   -5.7046    1.0000 </r>
       <r>   -5.0693    1.0000 </r>
       <r>   -1.0450    0.0000 </r>
       <r>   -0.3479    0.0000 </r>
       <r>    5.5041    0.0000 </r>
       <r>    5.9960    0.0000 </r>
      </set>
      <set comment="kpoint 230">
       <r>  -17.8446    1.0000 </r>
       <r>  -17.1203    1.0000 </r>
       <r>  -15.5497    1.0000 </r>
       <r>  -14.8414    1.0000 </r>
       <r>   -9.7080    1.0000 </r>
       <r>   -9.3058    1.0000 </r>
       <r>   -5.6154    1.0000 </r>
       <r>   -5.0783    1.0000 </r>
       <r>   -1.1164    0.0000 </r>
       <r>   -0.5302    0.0000 </r>
       <r>    5.1571    0.0000 </r>
       <r>    5.5689    0.0000 </r>
      </set>
      <set comment="kpoint 231">
       <r>  -17.6977    1.0000 </r>
       <r>  -17.0630    1.0000 </r>
       <r>  -15.7281    1.0000 </r>
       <r>  -15.1049    1.0000 </r>
       <r>   -9.4545    1.0000 </r>
       <r>   -9.1406    1.0000 </r>
       <r>   -5.5228    1.0000 </r>
       <r>   -5.1009    1.0000 </r>
       <r>   -1.1596    0.0000 </r>
       <r>   -0.7012    0.0000 </r>
       <r>    4.8860    0.0000 </r>
       <r>    5.2077    0.0000 </r>
      </set>
      <set comment="kpoint 232">
       <r>  -17.5417    1.0000 </r>
       <r>  -17.0562    1.0000 </r>
       <r>  -15.8226    1.0000 </r>
       <r>  -15.3445    1.0000 </r>
       <r>   -9.2486    1.0000 </r>
       <r>   -9.0328    1.0000 </r>
       <r>   -5.4304    1.0000 </r>
       <r>   -5.1392    1.0000 </r>
       <r>   -1.1692    0.0000 </r>
       <r>   -0.8538    0.0000 </r>
       <r>    4.7022    0.0000 </r>
       <r>    4.9234    0.0000 </r>
      </set>
      <set comment="kpoint 233">
       <r>  -17.3834    1.0000 </r>
       <r>  -17.1172    1.0000 </r>
       <r>  -15.8153    1.0000 </r>
       <r>  -15.5527    1.0000 </r>
       <r>   -9.0984    1.0000 </r>
       <r>   -8.9885    1.0000 </r>
       <r>   -5.3421    1.0000 </r>
       <r>   -5.1933    1.0000 </r>
       <r>   -1.1425    0.0000 </r>
       <r>   -0.9816    0.0000 </r>
       <r>    4.6125    0.0000 </r>
       <r>    4.7253    0.0000 </r>
      </set>
      <set comment="kpoint 234">
       <r>  -17.2349    1.0000 </r>
       <r>  -17.2349    1.0000 </r>
       <r>  -15.7166    1.0000 </r>
       <r>  -15.7166    1.0000 </r>
       <r>   -9.0105    1.0000 </r>
       <r>   -9.0105    1.0000 </r>
       <r>   -5.2618    1.0000 </r>
       <r>   -5.2618    1.0000 </r>
       <r>   -1.0792    0.0000 </r>
       <r>   -1.0792    0.0000 </r>
       <r>    4.6203    0.0000 </r>
       <r>    4.6203    0.0000 </r>
      </set>
      <set comment="kpoint 235">
       <r>  -18.0138    1.0000 </r>
       <r>  -18.0138    1.0000 </r>
       <r>  -13.1510    1.0000 </r>
       <r>  -13.1510    1.0000 </r>
       <r>  -11.6375    1.0000 </r>
       <r>  -11.6375    1.0000 </r>
       <r>   -5.5887    1.0000 </r>
       <r>   -5.5887    1.0000 </r>
       <r>    0.0019    0.0000 </r>
       <r>    0.0019    0.0000 </r>
       <r>    6.2537    0.0000 </r>
       <r>    6.2537    0.0000 </r>
      </set>
      <set comment="kpoint 236">
       <r>  -18.0045    1.0000 </r>
       <r>  -18.0045    1.0000 </r>
       <r>  -13.2417    1.0000 </r>
       <r>  -13.2417    1.0000 </r>
       <r>  -11.5436    1.0000 </r>
       <r>  -11.5436    1.0000 </r>
       <r>   -5.5830    1.0000 </r>
       <r>   -5.5830    1.0000 </r>
       <r>   -0.0192    0.0000 </r>
       <r>   -0.0192    0.0000 </r>
       <r>    6.2673    0.0000 </r>
       <r>    6.2673    0.0000 </r>
      </set>
      <set comment="kpoint 237">
       <r>  -17.9769    1.0000 </r>
       <r>  -17.9769    1.0000 </r>
       <r>  -13.4653    1.0000 </r>
       <r>  -13.4653    1.0000 </r>
       <r>  -11.3109    1.0000 </r>
       <r>  -11.3109    1.0000 </r>
       <r>   -5.5664    1.0000 </r>
       <r>   -5.5664    1.0000 </r>
       <r>   -0.0807    0.0000 </r>
       <r>   -0.0807    0.0000 </r>
       <r>    6.3078    0.0000 </r>
       <r>    6.3078    0.0000 </r>
      </set>
      <set comment="kpoint 238">
       <r>  -17.9312    1.0000 </r>
       <r>  -17.9312    1.0000 </r>
       <r>  -13.7507    1.0000 </r>
       <r>  -13.7507    1.0000 </r>
       <r>  -11.0119    1.0000 </r>
       <r>  -11.0119    1.0000 </r>
       <r>   -5.5395    1.0000 </r>
       <r>   -5.5395    1.0000 </r>
       <r>   -0.1771    0.0000 </r>
       <r>   -0.1771    0.0000 </r>
       <r>    6.3745    0.0000 </r>
       <r>    6.3745    0.0000 </r>
      </set>
      <set comment="kpoint 239">
       <r>  -17.8679    1.0000 </r>
       <r>  -17.8679    1.0000 </r>
       <r>  -14.0584    1.0000 </r>
       <r>  -14.0584    1.0000 </r>
       <r>  -10.6887    1.0000 </r>
       <r>  -10.6887    1.0000 </r>
       <r>   -5.5036    1.0000 </r>
       <r>   -5.5036    1.0000 </r>
       <r>   -0.3007    0.0000 </r>
       <r>   -0.3007    0.0000 </r>
       <r>    6.4641    0.0000 </r>
       <r>    6.4641    0.0000 </r>
      </set>
      <set comment="kpoint 240">
       <r>  -17.7877    1.0000 </r>
       <r>  -17.7877    1.0000 </r>
       <r>  -14.3694    1.0000 </r>
       <r>  -14.3694    1.0000 </r>
       <r>  -10.3635    1.0000 </r>
       <r>  -10.3635    1.0000 </r>
       <r>   -5.4604    1.0000 </r>
       <r>   -5.4604    1.0000 </r>
       <r>   -0.4421    0.0000 </r>
       <r>   -0.4421    0.0000 </r>
       <r>    6.5320    0.0000 </r>
       <r>    6.5320    0.0000 </r>
      </set>
      <set comment="kpoint 241">
       <r>  -17.6919    1.0000 </r>
       <r>  -17.6919    1.0000 </r>
       <r>  -14.6737    1.0000 </r>
       <r>  -14.6737    1.0000 </r>
       <r>  -10.0507    1.0000 </r>
       <r>  -10.0507    1.0000 </r>
       <r>   -5.4122    1.0000 </r>
       <r>   -5.4122    1.0000 </r>
       <r>   -0.5913    0.0000 </r>
       <r>   -0.5913    0.0000 </r>
       <r>    6.1789    0.0000 </r>
       <r>    6.1789    0.0000 </r>
      </set>
      <set comment="kpoint 242">
       <r>  -17.5827    1.0000 </r>
       <r>  -17.5827    1.0000 </r>
       <r>  -14.9643    1.0000 </r>
       <r>  -14.9643    1.0000 </r>
       <r>   -9.7616    1.0000 </r>
       <r>   -9.7616    1.0000 </r>
       <r>   -5.3620    1.0000 </r>
       <r>   -5.3620    1.0000 </r>
       <r>   -0.7386    0.0000 </r>
       <r>   -0.7386    0.0000 </r>
       <r>    5.7338    0.0000 </r>
       <r>    5.7338    0.0000 </r>
      </set>
      <set comment="kpoint 243">
       <r>  -17.4634    1.0000 </r>
       <r>  -17.4634    1.0000 </r>
       <r>  -15.2346    1.0000 </r>
       <r>  -15.2346    1.0000 </r>
       <r>   -9.5066    1.0000 </r>
       <r>   -9.5066    1.0000 </r>
       <r>   -5.3132    1.0000 </r>
       <r>   -5.3132    1.0000 </r>
       <r>   -0.8746    0.0000 </r>
       <r>   -0.8746    0.0000 </r>
       <r>    5.3436    0.0000 </r>
       <r>    5.3436    0.0000 </r>
      </set>
      <set comment="kpoint 244">
       <r>  -17.3404    1.0000 </r>
       <r>  -17.3404    1.0000 </r>
       <r>  -15.4766    1.0000 </r>
       <r>  -15.4766    1.0000 </r>
       <r>   -9.2955    1.0000 </r>
       <r>   -9.2955    1.0000 </r>
       <r>   -5.2696    1.0000 </r>
       <r>   -5.2696    1.0000 </r>
       <r>   -0.9908    0.0000 </r>
       <r>   -0.9908    0.0000 </r>
       <r>    5.0252    0.0000 </r>
       <r>    5.0252    0.0000 </r>
      </set>
      <set comment="kpoint 245">
       <r>  -17.2250    1.0000 </r>
       <r>  -17.2250    1.0000 </r>
       <r>  -15.6778    1.0000 </r>
       <r>  -15.6778    1.0000 </r>
       <r>   -9.1373    1.0000 </r>
       <r>   -9.1373    1.0000 </r>
       <r>   -5.2350    1.0000 </r>
       <r>   -5.2350    1.0000 </r>
       <r>   -1.0798    0.0000 </r>
       <r>   -1.0798    0.0000 </r>
       <r>    4.7894    0.0000 </r>
       <r>    4.7894    0.0000 </r>
      </set>
      <set comment="kpoint 246">
       <r>  -17.1370    1.0000 </r>
       <r>  -17.1370    1.0000 </r>
       <r>  -15.8176    1.0000 </r>
       <r>  -15.8176    1.0000 </r>
       <r>   -9.0390    1.0000 </r>
       <r>   -9.0390    1.0000 </r>
       <r>   -5.2127    1.0000 </r>
       <r>   -5.2127    1.0000 </r>
       <r>   -1.1357    0.0000 </r>
       <r>   -1.1357    0.0000 </r>
       <r>    4.6444    0.0000 </r>
       <r>    4.6444    0.0000 </r>
      </set>
      <set comment="kpoint 247">
       <r>  -17.1029    1.0000 </r>
       <r>  -17.1029    1.0000 </r>
       <r>  -15.8690    1.0000 </r>
       <r>  -15.8690    1.0000 </r>
       <r>   -9.0057    1.0000 </r>
       <r>   -9.0057    1.0000 </r>
       <r>   -5.2049    1.0000 </r>
       <r>   -5.2049    1.0000 </r>
       <r>   -1.1548    0.0000 </r>
       <r>   -1.1548    0.0000 </r>
       <r>    4.5954    0.0000 </r>
       <r>    4.5954    0.0000 </r>
      </set>
     </set>
    </set>
   </array>
  </eigenvalues>
  <separator name="orbital magnetization" >
   <v name="MAGDIPOLOUT">      0.00000000      0.00000000      0.00000000</v>
  </separator>
 </calculation>
 <structure name="finalpos" >
  <crystal>
   <varray name="basis" >
    <v>       4.25854225       0.00000000       0.00000000 </v>
    <v>       0.00000000       2.51677109       0.00000000 </v>
    <v>       0.00000000       0.00000000      19.67179581 </v>
   </varray>
   <i name="volume">    210.83790140 </i>
   <varray name="rec_basis" >
    <v>       0.23482214       0.00000000       0.00000000 </v>
    <v>       0.00000000       0.39733451       0.00000000 </v>
    <v>       0.00000000       0.00000000       0.05083420 </v>
   </varray>
  </crystal>
  <varray name="positions" >
   <v>       0.00051921      -0.00000000       0.00000000 </v>
   <v>       0.16614746       0.50000000      -0.00000000 </v>
   <v>       0.50051921       0.50000000       0.00000000 </v>
   <v>       0.66614746       0.00000000      -0.00000000 </v>
  </varray>
 </structure>
</modeling>
