gr                                      
           1
     4.258542    0.000000    0.000000
     0.000000    2.516771    0.000000
     0.000000    0.000000   19.671796
   C 
   4
Direct configuration=     1
   0.00051919  0.00000000  0.00000000
   0.16614747  0.50000000  0.00000000
   0.50051919  0.50000000  0.00000000
   0.66614747  0.00000000  0.00000000
Direct configuration=     2
   0.00051927 -0.00000000  0.00000000
   0.16614740  0.50000000 -0.00000000
   0.50051927  0.50000000  0.00000000
   0.66614740  0.00000000 -0.00000000
Direct configuration=     3
   0.00051921 -0.00000000  0.00000000
   0.16614746  0.50000000 -0.00000000
   0.50051921  0.50000000  0.00000000
   0.66614746  0.00000000 -0.00000000
Direct configuration=     4
   0.00051920 -0.00000000  0.00000000
   0.16614747  0.50000000 -0.00000000
   0.50051920  0.50000000  0.00000000
   0.66614747  0.00000000 -0.00000000
Direct configuration=     5
   0.00051921 -0.00000000  0.00000000
   0.16614746  0.50000000 -0.00000000
   0.50051921  0.50000000  0.00000000
   0.66614746  0.00000000 -0.00000000
