    4    4  400    1
  0.5270948E+02  0.4337146E-09  0.2460896E-09  0.1975383E-08  0.5000000E-15
  1.000000000000000E-004
  CAR 
 gr                                      
     16    247     12
 
  0.0000000E+00  0.0000000E+00  0.0000000E+00  0.1157407E-02
    1      -22.150281
    2      -17.165975
    3      -15.891592
    4      -10.279113
    5       -8.943096
    6       -5.921587
    7       -5.749111
    8       -5.247161
    9       -1.144043
   10        0.536247
   11        1.335599
   12        1.724708
 
  0.4166667E-01  0.0000000E+00  0.0000000E+00  0.2314815E-02
    1      -22.140329
    2      -17.300346
    3      -15.742127
    4      -10.267271
    5       -8.933357
    6       -5.965276
    7       -5.770161
    8       -5.308908
    9       -1.066452
   10        0.549724
   11        1.349264
   12        1.738542
 
  0.8333333E-01  0.0000000E+00  0.0000000E+00  0.2314815E-02
    1      -22.110477
    2      -17.598117
    3      -15.399149
    4      -10.231765
    5       -8.904191
    6       -6.094371
    7       -5.832187
    8       -5.481123
    9       -0.846869
   10        0.590158
   11        1.390252
   12        1.780042
 
  0.1250000E+00  0.0000000E+00  0.0000000E+00  0.2314815E-02
    1      -22.060747
    2      -17.947068
    3      -14.975121
    4      -10.172651
    5       -8.855749
    6       -6.303329
    7       -5.932004
    8       -5.734246
    9       -0.515340
   10        0.657564
   11        1.458551
   12        1.849213
 
  0.1666667E+00  0.0000000E+00  0.0000000E+00  0.2314815E-02
    1      -21.991171
    2      -18.305907
    3      -14.511744
    4      -10.090028
    5       -8.788294
    6       -6.583978
    7       -6.064840
    8       -6.038056
    9       -0.102917
   10        0.751957
   11        1.554136
   12        1.946058
 
  0.2083333E+00  0.0000000E+00  0.0000000E+00  0.2314815E-02
    1      -21.901799
    2      -18.660069
    3      -14.024174
    4       -9.984037
    5       -8.702200
    6       -6.926698
    7       -6.369343
    8       -6.224965
    9        0.365995
   10        0.873345
   11        1.676968
   12        2.070577
 
  0.2500000E+00  0.0000000E+00  0.0000000E+00  0.2314815E-02
    1      -21.792697
    2      -19.003426
    3      -13.519322
    4       -9.854869
    5       -8.597971
    6       -7.321478
    7       -6.712240
    8       -6.406288
    9        0.873923
   10        1.021724
   11        1.826987
   12        2.222772
 
  0.2916667E+00  0.0000000E+00  0.0000000E+00  0.2314815E-02
    1      -21.663945
    2      -19.332938
    3      -13.001230
    4       -9.702769
    5       -8.476253
    6       -7.758700
    7       -7.056257
    8       -6.602835
    9        1.197076
   10        1.408267
   11        2.004099
   12        2.402641
 
  0.3333333E+00  0.0000000E+00  0.0000000E+00  0.2314815E-02
    1      -21.515645
    2      -19.646882
    3      -12.472867
    4       -9.528052
    5       -8.337856
    6       -8.229583
    7       -7.394421
    8       -6.809056
    9        1.399366
   10        1.959192
   11        2.208150
   12        2.610179
 
  0.3750000E+00  0.0000000E+00  0.0000000E+00  0.2314815E-02
    1      -21.347915
    2      -19.944178
    3      -11.936848
    4       -9.331110
    5       -8.726379
    6       -8.183779
    7       -7.722000
    8       -7.019995
    9        1.628547
   10        2.438853
   11        2.517446
   12        2.845378
 
  0.4166667E+00  0.0000000E+00  0.0000000E+00  0.2314815E-02
    1      -21.160899
    2      -20.224087
    3      -11.395774
    4       -9.242383
    5       -9.112437
    6       -8.035689
    7       -8.015246
    8       -7.231340
    9        1.884551
   10        2.695593
   11        3.067935
   12        3.108227
 
  0.4583333E+00  0.0000000E+00  0.0000000E+00  0.2314815E-02
    1      -20.954772
    2      -20.486077
    3      -10.852428
    4       -9.771862
    5       -8.872653
    6       -8.333119
    7       -7.833744
    8       -7.439402
    9        2.167288
   10        2.812418
   11        2.976647
   12        3.398702
 
  0.5000000E+00  0.0000000E+00  0.0000000E+00  0.1157407E-02
    1      -20.729745
    2      -20.729745
    3      -10.309932
    4      -10.309932
    5       -8.612544
    6       -8.612544
    7       -7.641073
    8       -7.641073
    9        2.476636
   10        2.476636
   11        3.274273
   12        3.274273
 
  0.0000000E+00  0.2777778E-01  0.0000000E+00  0.2314815E-02
    1      -22.136515
    2      -17.154078
    3      -15.879880
    4      -10.262733
    5       -9.005744
    6       -5.949276
    7       -5.807306
    8       -5.230493
    9       -1.147056
   10        0.554909
   11        1.354470
   12        1.743813
 
  0.4166667E-01  0.2777778E-01  0.0000000E+00  0.4629630E-02
    1      -22.126563
    2      -17.288313
    3      -15.730598
    4      -10.250895
    5       -8.995991
    6       -5.994878
    7       -5.825811
    8       -5.292365
    9       -1.069447
   10        0.568386
   11        1.368134
   12        1.757647
 
  0.8333333E-01  0.2777778E-01  0.0000000E+00  0.4629630E-02
    1      -22.096716
    2      -17.585847
    3      -15.388000
    4      -10.215400
    5       -8.966783
    6       -6.126326
    7       -5.883703
    8       -5.464873
    9       -0.849895
   10        0.608821
   11        1.409120
   12        1.799148
 
  0.1250000E+00  0.2777778E-01  0.0000000E+00  0.4629630E-02
    1      -22.046993
    2      -17.934578
    3      -14.964433
    4      -10.156306
    5       -8.918271
    6       -6.335092
    7       -5.981078
    8       -5.718307
    9       -0.518599
   10        0.676228
   11        1.477415
   12        1.868319
 
  0.1666667E+00  0.2777778E-01  0.0000000E+00  0.4629630E-02
    1      -21.977428
    2      -18.293228
    3      -14.501595
    4      -10.073711
    5       -8.850708
    6       -6.613177
    7       -6.113363
    8       -6.022354
    9       -0.106701
   10        0.770624
   11        1.572995
   12        1.965164
 
  0.2083333E+00  0.2777778E-01  0.0000000E+00  0.4629630E-02
    1      -21.888071
    2      -18.647229
    3      -14.014655
    4       -9.967756
    5       -8.764466
    6       -6.951944
    7       -6.353785
    8       -6.274178
    9        0.361374
   10        0.892018
   11        1.695821
   12        2.089685
 
  0.2500000E+00  0.2777778E-01  0.0000000E+00  0.4629630E-02
    1      -21.778987
    2      -18.990446
    3      -13.510545
    4       -9.838632
    5       -8.660037
    6       -7.342217
    7       -6.696746
    8       -6.456852
    9        0.868170
   10        1.040403
   11        1.845834
   12        2.241882
 
  0.2916667E+00  0.2777778E-01  0.0000000E+00  0.4629630E-02
    1      -21.650258
    2      -19.319838
    3      -12.993327
    4       -9.686584
    5       -8.538055
    6       -7.774919
    7       -7.040767
    8       -6.655018
    9        1.215763
   10        1.401128
   11        2.022941
   12        2.421753
 
  0.3333333E+00  0.2777778E-01  0.0000000E+00  0.4629630E-02
    1      -21.501985
    2      -19.633678
    3      -12.465999
    4       -9.511925
    5       -8.399318
    6       -8.241575
    7       -7.378896
    8       -6.862890
    9        1.418063
   10        1.950485
   11        2.226989
   12        2.629295
 
  0.3750000E+00  0.2777778E-01  0.0000000E+00  0.4629630E-02
    1      -21.334286
    2      -19.930884
    3      -11.931209
    4       -9.315049
    5       -8.734577
    6       -8.244808
    7       -7.706414
    8       -7.075379
    9        1.647255
   10        2.457696
   11        2.507183
   12        2.864499
 
  0.4166667E+00  0.2777778E-01  0.0000000E+00  0.4629630E-02
    1      -21.147307
    2      -20.210715
    3      -11.391591
    4       -9.247265
    5       -9.096449
    6       -8.075729
    7       -8.020028
    8       -7.288108
    9        1.903272
   10        2.714451
   11        3.057111
   12        3.127353
 
  0.4583333E+00  0.2777778E-01  0.0000000E+00  0.4629630E-02
    1      -20.941223
    2      -20.472638
    3      -10.849978
    4       -9.773892
    5       -8.856744
    6       -8.317376
    7       -7.893548
    8       -7.497366
    9        2.186024
   10        2.831211
   11        2.995528
   12        3.417838
 
  0.5000000E+00  0.2777778E-01  0.0000000E+00  0.2314815E-02
    1      -20.716248
    2      -20.716248
    3      -10.309534
    4      -10.309534
    5       -8.596718
    6       -8.596718
    7       -7.700044
    8       -7.700044
    9        2.495394
   10        2.495394
   11        3.292964
   12        3.292964
 
  0.0000000E+00  0.5555556E-01  0.0000000E+00  0.2314815E-02
    1      -22.095224
    2      -17.118393
    3      -15.844888
    4      -10.213624
    5       -9.188633
    6       -6.031825
    7       -5.977164
    8       -5.180508
    9       -1.156909
   10        0.610896
   11        1.411076
   12        1.801129
 
  0.4166667E-01  0.5555556E-01  0.0000000E+00  0.4629630E-02
    1      -22.085277
    2      -17.252225
    3      -15.696152
    4      -10.201799
    5       -9.178836
    6       -6.091436
    7       -5.979805
    8       -5.242769
    9       -1.079242
   10        0.624372
   11        1.424737
   12        1.814962
 
  0.8333333E-01  0.5555556E-01  0.0000000E+00  0.4629630E-02
    1      -22.055443
    2      -17.549054
    3      -15.354696
    4      -10.166341
    5       -9.149491
    6       -6.232301
    7       -6.023036
    8       -5.416181
    9       -0.859778
   10        0.664807
   11        1.465716
   12        1.856464
 
  0.1250000E+00  0.5555556E-01  0.0000000E+00  0.4629630E-02
    1      -22.005743
    2      -17.897130
    3      -14.932531
    4      -10.107308
    5       -9.100741
    6       -6.439572
    7       -6.114115
    8       -5.670566
    9       -0.529188
   10        0.732217
   11        1.534000
   12        1.925636
 
  0.1666667E+00  0.5555556E-01  0.0000000E+00  0.4629630E-02
    1      -21.936212
    2      -18.255213
    3      -14.471336
    4      -10.024798
    5       -9.032823
    6       -6.708773
    7       -6.246021
    8       -5.975336
    9       -0.118895
   10        0.826620
   11        1.629564
   12        2.022483
 
  0.2083333E+00  0.5555556E-01  0.0000000E+00  0.4629630E-02
    1      -21.846899
    2      -18.608725
    3      -13.986327
    4       -9.918952
    5       -8.946087
    6       -7.034506
    7       -6.410137
    8       -6.307203
    9        0.346618
   10        0.948023
   11        1.752371
   12        2.147007
 
  0.2500000E+00  0.5555556E-01  0.0000000E+00  0.4629630E-02
    1      -21.737869
    2      -18.951523
    3      -13.484493
    4       -9.789960
    5       -8.840995
    6       -7.410098
    7       -6.650354
    8       -6.598043
    9        0.849953
   10        1.096424
   11        1.902364
   12        2.299209
 
  0.2916667E+00  0.5555556E-01  0.0000000E+00  0.4629630E-02
    1      -21.609209
    2      -19.280553
    3      -12.969971
    4       -9.638069
    5       -8.718143
    6       -7.828152
    7       -6.994385
    8       -6.802147
    9        1.271803
   10        1.378666
   11        2.079453
   12        2.479087
 
  0.3333333E+00  0.5555556E-01  0.0000000E+00  0.4629630E-02
    1      -21.461015
    2      -19.594081
    3      -12.445845
    4       -9.463591
    5       -8.578280
    6       -8.281165
    7       -7.332403
    8       -7.015905
    9        1.474126
   10        1.923199
   11        2.283492
   12        2.686637
 
  0.3750000E+00  0.5555556E-01  0.0000000E+00  0.4629630E-02
    1      -21.293412
    2      -19.891016
    3      -11.914865
    4       -9.266918
    5       -8.761983
    6       -8.422335
    7       -7.659734
    8       -7.233814
    9        1.703345
   10        2.475003
   11        2.514209
   12        2.921853
 
  0.4166667E+00  0.5555556E-01  0.0000000E+00  0.4629630E-02
    1      -21.106545
    2      -20.170614
    3      -11.379791
    4       -9.264075
    5       -9.048540
    6       -8.251446
    7       -7.973117
    8       -7.451310
    9        1.959391
   10        2.771011
   11        3.022392
   12        3.184723
 
  0.4583333E+00  0.5555556E-01  0.0000000E+00  0.4629630E-02
    1      -20.900592
    2      -20.432334
    3      -10.843596
    4       -9.781640
    5       -8.809074
    6       -8.270214
    7       -8.067005
    8       -7.664637
    9        2.242180
   10        2.887491
   11        3.052167
   12        3.475293
 
  0.5000000E+00  0.5555556E-01  0.0000000E+00  0.2314815E-02
    1      -20.675767
    2      -20.675767
    3      -10.309610
    4      -10.309610
    5       -8.549299
    6       -8.549299
    7       -7.870711
    8       -7.870711
    9        2.551598
   10        2.551598
   11        3.348927
   12        3.348927
 
  0.0000000E+00  0.8333333E-01  0.0000000E+00  0.2314815E-02
    1      -22.026444
    2      -17.058931
    3      -15.787075
    4      -10.131894
    5       -9.478024
    6       -6.245961
    7       -6.167693
    8       -5.097271
    9       -1.176052
   10        0.704210
   11        1.505394
   12        1.896656
 
  0.4166667E-01  0.8333333E-01  0.0000000E+00  0.4629630E-02
    1      -22.016504
    2      -17.192116
    3      -15.639240
    4      -10.120089
    5       -9.468137
    6       -6.306151
    7       -6.166782
    8       -5.160219
    9       -1.098268
   10        0.717685
   11        1.519050
   12        1.910490
 
  0.8333333E-01  0.8333333E-01  0.0000000E+00  0.4629630E-02
    1      -21.986693
    2      -17.487794
    3      -15.299702
    4      -10.084693
    5       -9.438517
    6       -6.445626
    7       -6.202973
    8       -5.335217
    9       -0.878927
   10        0.758116
   11        1.560016
   12        1.951991
 
  0.1250000E+00  0.8333333E-01  0.0000000E+00  0.4629630E-02
    1      -21.937033
    2      -17.834784
    3      -14.879929
    4      -10.025765
    5       -9.389288
    6       -6.643711
    7       -6.290634
    8       -5.591260
    9       -0.549537
   10        0.825523
   11        1.628278
   12        2.021163
 
  0.1666667E+00  0.8333333E-01  0.0000000E+00  0.4629630E-02
    1      -21.867558
    2      -18.191920
    3      -14.421574
    4       -9.943400
    5       -9.320659
    6       -6.895190
    7       -6.425144
    8       -5.897277
    9       -0.142009
   10        0.919925
   11        1.723813
   12        2.118011
 
  0.2083333E+00  0.8333333E-01  0.0000000E+00  0.4629630E-02
    1      -21.778318
    2      -18.544617
    3      -13.939928
    4       -9.837742
    5       -9.232932
    6       -7.196663
    7       -6.597498
    8       -6.229885
    9        0.319082
   10        1.041332
   11        1.846585
   12        2.242538
 
  0.2500000E+00  0.8333333E-01  0.0000000E+00  0.4629630E-02
    1      -21.669382
    2      -18.886712
    3      -13.442088
    4       -9.708979
    5       -9.126512
    6       -7.544608
    7       -6.797369
    8       -6.573349
    9        0.816438
   10        1.189745
   11        1.996540
   12        2.394745
 
  0.2916667E+00  0.8333333E-01  0.0000000E+00  0.4629630E-02
    1      -21.540833
    2      -19.215135
    3      -12.932330
    4       -9.557358
    5       -9.001918
    6       -7.934635
    7       -7.014961
    8       -6.917385
    9        1.337804
   10        1.365141
   11        2.173594
   12        2.574632
 
  0.3333333E+00  0.8333333E-01  0.0000000E+00  0.4629630E-02
    1      -21.392775
    2      -19.528138
    3      -12.413903
    4       -9.383190
    5       -8.859800
    6       -8.361353
    7       -7.255200
    8       -7.242005
    9        1.567487
   10        1.873923
   11        2.377611
   12        2.782193
 
  0.3750000E+00  0.8333333E-01  0.0000000E+00  0.4629630E-02
    1      -21.225330
    2      -19.824620
    3      -11.889764
    4       -9.186865
    5       -8.818720
    6       -8.700964
    7       -7.582199
    8       -7.471991
    9        1.796731
   10        2.416909
   11        2.608342
   12        3.017423
 
  0.4166667E+00  0.8333333E-01  0.0000000E+00  0.4629630E-02
    1      -21.038650
    2      -20.103826
    3      -11.362920
    4       -9.300561
    5       -8.968870
    6       -8.526401
    7       -7.895179
    8       -7.699928
    9        2.052804
   10        2.865228
   11        2.957789
   12        3.280312
 
  0.4583333E+00  0.8333333E-01  0.0000000E+00  0.4629630E-02
    1      -20.832915
    2      -20.365205
    3      -10.836640
    4       -9.800980
    5       -8.729817
    6       -8.337327
    7       -8.191838
    8       -7.921997
    9        2.335622
   10        2.981030
   11        3.146544
   12        3.462603
 
  0.5000000E+00  0.8333333E-01  0.0000000E+00  0.2314815E-02
    1      -20.608345
    2      -20.608345
    3      -10.314597
    4      -10.314597
    5       -8.470477
    6       -8.470477
    7       -8.135240
    8       -8.135240
    9        2.645078
   10        2.645078
   11        3.441637
   12        3.441637
 
  0.0000000E+00  0.1111111E+00  0.0000000E+00  0.2314815E-02
    1      -21.930235
    2      -16.975713
    3      -15.707307
    4      -10.017718
    5       -9.854828
    6       -6.596379
    7       -6.354330
    8       -4.980889
    9       -1.208556
   10        0.834853
   11        1.637385
   12        2.030398
 
  0.4166667E-01  0.1111111E+00  0.0000000E+00  0.4629630E-02
    1      -21.920307
    2      -17.108044
    3      -15.560709
    4      -10.005944
    5       -9.844781
    6       -6.645026
    7       -6.361053
    8       -5.044887
    9       -1.130556
   10        0.848324
   11        1.651035
   12        2.044230
 
  0.8333333E-01  0.1111111E+00  0.0000000E+00  0.4629630E-02
    1      -21.890529
    2      -17.402162
    3      -15.223897
    4       -9.970639
    5       -9.814670
    6       -6.773734
    7       -6.396856
    8       -5.222296
    9       -0.911314
   10        0.888743
   11        1.691979
   12        2.085730
 
  0.1250000E+00  0.1111111E+00  0.0000000E+00  0.4629630E-02
    1      -21.840924
    2      -17.747647
    3      -14.807622
    4       -9.911863
    5       -9.764587
    6       -6.960219
    7       -6.479267
    8       -5.480819
    9       -0.583631
   10        0.956133
   11        1.760205
   12        2.154900
 
  0.1666667E+00  0.1111111E+00  0.0000000E+00  0.4629630E-02
    1      -21.771526
    2      -18.103457
    3      -14.353492
    4       -9.829711
    5       -9.694686
    6       -7.192856
    7       -6.612165
    8       -5.788671
    9       -0.180142
   10        1.050516
   11        1.855691
   12        2.251746
 
  0.2083333E+00  0.1111111E+00  0.0000000E+00  0.4629630E-02
    1      -21.682390
    2      -18.455004
    3      -13.876917
    4       -9.724327
    5       -9.605188
    6       -7.466040
    7       -6.790846
    8       -6.122345
    9        0.274461
   10        1.171910
   11        1.978404
   12        2.376273
 
  0.2500000E+00  0.1111111E+00  0.0000000E+00  0.4629630E-02
    1      -21.573584
    2      -18.796106
    3      -13.385178
    4       -9.595899
    5       -9.496383
    6       -7.777304
    7       -7.005655
    8       -6.466240
    9        0.763044
   10        1.320314
   11        2.128291
   12        2.528484
 
  0.2916667E+00  0.1111111E+00  0.0000000E+00  0.4629630E-02
    1      -21.445193
    2      -19.123671
    3      -12.882786
    4       -9.444674
    5       -9.368636
    6       -8.125636
    7       -7.244581
    8       -6.810251
    9        1.273622
   10        1.495711
   11        2.305280
   12        2.708376
 
  0.3333333E+00  0.1111111E+00  0.0000000E+00  0.4629630E-02
    1      -21.297324
    2      -19.435933
    3      -12.373295
    4       -9.270961
    5       -9.222398
    6       -8.509892
    7       -7.495741
    8       -7.147741
    9        1.698061
   10        1.797301
   11        2.509250
   12        2.915946
 
  0.3750000E+00  0.1111111E+00  0.0000000E+00  0.4629630E-02
    1      -21.130104
    2      -19.731773
    3      -11.860042
    4       -9.075148
    5       -9.058216
    6       -8.927565
    7       -7.749307
    8       -7.474232
    9        1.927310
   10        2.326857
   11        2.739986
   12        3.151189
 
  0.4166667E+00  0.1111111E+00  0.0000000E+00  0.4629630E-02
    1      -20.943686
    2      -20.010424
    3      -11.346510
    4       -9.374487
    5       -8.876748
    6       -8.857718
    7       -7.998233
    8       -7.786601
    9        2.183387
   10        2.855394
   11        2.997001
   12        3.414095
 
  0.4583333E+00  0.1111111E+00  0.0000000E+00  0.4629630E-02
    1      -20.738260
    2      -20.271324
    3      -10.836551
    4       -9.845358
    5       -8.678806
    6       -8.619275
    7       -8.237910
    8       -8.082603
    9        2.466203
   10        3.111599
   11        3.278619
   12        3.370486
 
  0.5000000E+00  0.1111111E+00  0.0000000E+00  0.2314815E-02
    1      -20.514048
    2      -20.514048
    3      -10.334524
    4      -10.334524
    5       -8.465409
    6       -8.465409
    7       -8.360580
    8       -8.360580
    9        2.775653
   10        2.775653
   11        3.568359
   12        3.568359
 
  0.0000000E+00  0.1388889E+00  0.0000000E+00  0.2314815E-02
    1      -21.806686
    2      -16.868769
    3      -15.607046
    4      -10.298057
    5       -9.871353
    6       -7.010055
    7       -6.588247
    8       -4.831514
    9       -1.260028
   10        1.002821
   11        1.806992
   12        2.202355
 
  0.4166667E-01  0.1388889E+00  0.0000000E+00  0.4629630E-02
    1      -21.796772
    2      -17.000099
    3      -15.462006
    4      -10.287736
    5       -9.859620
    6       -7.056546
    7       -6.592498
    8       -4.897043
    9       -1.181632
   10        1.016283
   11        1.820629
   12        2.216186
 
  0.8333333E-01  0.1388889E+00  0.0000000E+00  0.4629630E-02
    1      -21.767036
    2      -17.292307
    3      -15.128801
    4      -10.256784
    5       -9.824440
    6       -7.182070
    7       -6.618193
    8       -5.077915
    9       -0.962330
   10        1.056679
   11        1.861539
   12        2.257681
 
  0.1250000E+00  0.1388889E+00  0.0000000E+00  0.4629630E-02
    1      -21.717501
    2      -17.635886
    3      -14.717349
    4      -10.205231
    5       -9.765870
    6       -7.363848
    7       -6.685002
    8       -5.339931
    9       -0.636830
   10        1.124031
   11        1.929708
   12        2.326845
 
  0.1666667E+00  0.1388889E+00  0.0000000E+00  0.4629630E-02
    1      -21.648206
    2      -17.989988
    3      -14.269202
    4      -10.133128
    5       -9.684009
    6       -7.586402
    7       -6.802944
    8       -5.650302
    9       -0.238763
   10        1.218369
   11        2.025114
   12        2.423685
 
  0.2083333E+00  0.1388889E+00  0.0000000E+00  0.4629630E-02
    1      -21.559204
    2      -18.340041
    3      -13.799961
    4      -10.040535
    5       -9.578999
    6       -7.840852
    7       -6.973033
    8       -5.985393
    9        0.207064
   10        1.339716
   11        2.147726
   12        2.548206
 
  0.2500000E+00  0.1388889E+00  0.0000000E+00  0.4629630E-02
    1      -21.450565
    2      -18.679849
    3      -13.317220
    4       -9.927513
    5       -9.451029
    6       -8.122589
    7       -7.189890
    8       -6.329815
    9        0.683790
   10        1.488079
   11        2.297496
   12        2.700413
 
  0.2916667E+00  0.1388889E+00  0.0000000E+00  0.4629630E-02
    1      -21.322378
    2      -19.006293
    3      -12.825920
    4       -9.794111
    5       -9.300346
    6       -8.430147
    7       -7.443517
    8       -6.673729
    9        1.179805
   10        1.663442
   11        2.474360
   12        2.880306
 
  0.3333333E+00  0.1388889E+00  0.0000000E+00  0.4629630E-02
    1      -21.174754
    2      -19.317587
    3      -12.330187
    4       -9.640344
    5       -9.127257
    6       -8.764423
    7       -7.720925
    8       -7.010720
    9        1.686655
   10        1.865764
   11        2.678220
   12        3.087882
 
  0.3750000E+00  0.1388889E+00  0.0000000E+00  0.4629630E-02
    1      -21.007824
    2      -19.612590
    3      -11.834098
    4       -9.466180
    5       -9.127438
    6       -8.932147
    7       -8.008154
    8       -7.336470
    9        2.094985
   10        2.197715
   11        2.908915
   12        3.323133
 
  0.4166667E+00  0.1388889E+00  0.0000000E+00  0.4629630E-02
    1      -20.821749
    2      -19.890517
    3      -11.342084
    4       -9.520544
    5       -9.271534
    6       -8.715494
    7       -8.292669
    8       -7.647968
    9        2.351027
   10        2.707336
   11        3.166093
   12        3.586051
 
  0.4583333E+00  0.1388889E+00  0.0000000E+00  0.4629630E-02
    1      -20.616722
    2      -20.150793
    3      -10.859127
    4       -9.942830
    5       -9.056320
    6       -8.565282
    7       -8.477895
    8       -7.943046
    9        2.633796
   10        3.209764
   11        3.279030
   12        3.448313
 
  0.5000000E+00  0.1388889E+00  0.0000000E+00  0.2314815E-02
    1      -20.392977
    2      -20.392977
    3      -10.390776
    4      -10.390776
    5       -8.820640
    6       -8.820640
    7       -8.220097
    8       -8.220097
    9        2.943177
   10        2.943177
   11        3.669178
   12        3.669178
 
  0.0000000E+00  0.1666667E+00  0.0000000E+00  0.2314815E-02
    1      -21.655912
    2      -16.738138
    3      -15.488736
    4      -10.787037
    5       -9.693142
    6       -7.469999
    7       -6.865125
    8       -4.649349
    9       -1.337379
   10        1.208095
   11        2.014130
   12        2.412529
 
  0.4166667E-01  0.1666667E+00  0.0000000E+00  0.4629630E-02
    1      -21.646015
    2      -16.868414
    3      -15.345566
    4      -10.776245
    5       -9.681463
    6       -7.516730
    7       -6.864030
    8       -4.717086
    9       -1.258240
   10        1.221545
   11        2.027750
   12        2.426358
 
  0.8333333E-01  0.1666667E+00  0.0000000E+00  0.4629630E-02
    1      -21.616331
    2      -17.158455
    3      -15.017021
    4      -10.743842
    5       -9.646446
    6       -7.643291
    7       -6.873930
    8       -4.902855
    9       -1.038430
   10        1.261903
   11        2.068603
   12        2.467846
 
  0.1250000E+00  0.1666667E+00  0.0000000E+00  0.4629630E-02
    1      -21.566885
    2      -17.499749
    3      -14.612172
    4      -10.689738
    5       -9.588148
    6       -7.825526
    7       -6.917427
    8       -5.169662
    9       -0.715441
   10        1.329194
   11        2.136677
   12        2.536999
 
  0.1666667E+00  0.1666667E+00  0.0000000E+00  0.4629630E-02
    1      -21.497714
    2      -17.851752
    3      -14.172528
    4      -10.613765
    5       -9.506670
    6       -8.045380
    7       -7.009405
    8       -5.483367
    9       -0.324225
   10        1.423453
   11        2.231949
   12        2.633824
 
  0.2083333E+00  0.1666667E+00  0.0000000E+00  0.4629630E-02
    1      -21.408875
    2      -18.199949
    3      -13.714035
    4      -10.515644
    5       -9.402152
    6       -8.291638
    7       -7.155800
    8       -5.820239
    9        0.110379
   10        1.544711
   11        2.354384
   12        2.758329
 
  0.2500000E+00  0.1666667E+00  0.0000000E+00  0.4629630E-02
    1      -21.300442
    2      -18.538141
    3      -13.244880
    4      -10.394938
    5       -9.274787
    6       -8.557534
    7       -7.355829
    8       -6.165239
    9        0.571964
   10        1.692984
   11        2.503935
   12        2.910523
 
  0.2916667E+00  0.1666667E+00  0.0000000E+00  0.4629630E-02
    1      -21.172507
    2      -18.863187
    3      -12.770858
    4      -10.250982
    5       -9.124820
    6       -8.839413
    7       -7.603622
    8       -6.508910
    9        1.049479
   10        1.868263
   11        2.680542
   12        3.090407
 
  0.3333333E+00  0.1666667E+00  0.0000000E+00  0.4629630E-02
    1      -21.025185
    2      -19.173272
    3      -12.297248
    4      -10.082813
    5       -9.136234
    6       -8.952558
    7       -7.889406
    8       -6.845140
    9        1.535039
   10        2.070510
   11        2.884121
   12        3.297980
 
  0.3750000E+00  0.1666667E+00  0.0000000E+00  0.4629630E-02
    1      -20.858614
    2      -19.467230
    3      -11.829615
    4       -9.889128
    5       -9.449398
    6       -8.758383
    7       -8.200504
    8       -7.169829
    9        2.022629
   10        2.299658
   11        3.114566
   12        3.533235
 
  0.4166667E+00  0.1666667E+00  0.0000000E+00  0.4629630E-02
    1      -20.672964
    2      -19.744255
    3      -11.374090
    4       -9.782386
    5       -9.668392
    6       -8.542770
    7       -8.522426
    8       -7.480113
    9        2.507375
   10        2.555619
   11        3.371723
   12        3.796160
 
  0.4583333E+00  0.1666667E+00  0.0000000E+00  0.4629630E-02
    1      -20.468434
    2      -20.003753
    3      -10.937127
    4      -10.139643
    5       -9.419347
    6       -8.840498
    7       -8.306302
    8       -7.773921
    9        2.838285
   10        2.985106
   11        3.483199
   12        3.655188
 
  0.5000000E+00  0.1666667E+00  0.0000000E+00  0.2314815E-02
    1      -20.245266
    2      -20.245266
    3      -10.524498
    4      -10.524498
    5       -9.142210
    6       -9.142210
    7       -8.049712
    8       -8.049712
    9        3.147530
   10        3.147530
   11        3.452034
   12        3.452034
 