 running on    8 total cores
 distrk:  each k-point on    8 cores,    1 groups
 distr:  one band on    2 cores,    4 groups
 using from now: INCAR     
 vasp.5.3.5 31Mar14 (build Mar 02 2015 18:14:16) complex                        
  
 POSCAR found type information on POSCAR  C 
 POSCAR found :  1 types and       4 ions
 LDA part: xc-table for Pade appr. of Perdew
 POSCAR, INCAR and KPOINTS ok, starting setup
 WARNING: small aliasing (wrap around) errors must be expected
 FFT: planning ...
 WAVECAR not read
 entering main loop
       N       E                     dE             d eps       ncg     rms          rms(c)
DAV:   1     0.189118991472E+03    0.18912E+03   -0.10650E+04  5928   0.275E+03
DAV:   2    -0.949996498242E+01   -0.19862E+03   -0.17546E+03 10460   0.259E+02
DAV:   3    -0.382485438067E+02   -0.28749E+02   -0.28168E+02  7380   0.119E+02    0.721E+00
RMM:   4    -0.376388791756E+02    0.60966E+00   -0.93513E+00  5928   0.263E+01    0.416E+00
RMM:   5    -0.369104557723E+02    0.72842E+00   -0.27122E+00  5935   0.113E+01    0.701E-01
RMM:   6    -0.369127060973E+02   -0.22503E-02   -0.84103E-02  6366   0.202E+00    0.506E-01
RMM:   7    -0.369033827878E+02    0.93233E-02   -0.30664E-02  5948   0.153E+00    0.328E-01
RMM:   8    -0.368983470242E+02    0.50358E-02   -0.67562E-03  5937   0.544E-01    0.133E-01
RMM:   9    -0.368980366741E+02    0.31035E-03   -0.19497E-02  5928   0.824E-01    0.152E-01
RMM:  10    -0.368979655770E+02    0.71097E-04   -0.22709E-03  5928   0.345E-01    0.288E-02
RMM:  11    -0.369003819810E+02   -0.24164E-02   -0.67731E-04  5936   0.171E-01    0.430E-02
RMM:  12    -0.369008648074E+02   -0.48283E-03   -0.21986E-04  5938   0.978E-02    0.429E-03
RMM:  13    -0.369011197572E+02   -0.25495E-03   -0.46015E-05  6051   0.356E-02    0.352E-03
RMM:  14    -0.369012021042E+02   -0.82347E-04   -0.99730E-06  5967   0.157E-02    0.122E-03
RMM:  15    -0.369012131383E+02   -0.11034E-04   -0.15579E-06  5975   0.697E-03    0.165E-03
RMM:  16    -0.369012250077E+02   -0.11869E-04   -0.11651E-06  5928   0.704E-03    0.108E-03
RMM:  17    -0.369012305319E+02   -0.55242E-05   -0.10524E-07  6004   0.199E-03    0.546E-04
RMM:  18    -0.369012315959E+02   -0.10640E-05   -0.34900E-08  5965   0.149E-03    0.108E-04
WARNING in EDDRMM: call to ZHEGV failed, returncode =   6  3  1
WARNING in EDDRMM: call to ZHEGV failed, returncode =   6  3  1
RMM:  19    -0.369012323912E+02   -0.79533E-06   -0.10519E-08  6059   0.481E-04    0.244E-05
RMM:  20    -0.369012324348E+02   -0.43618E-07   -0.86903E-10  4604   0.155E-04    0.233E-05
RMM:  21    -0.369012324505E+02   -0.15738E-07   -0.21279E-10  4336   0.840E-05    0.785E-06
RMM:  22    -0.369012324508E+02   -0.20941E-09   -0.14380E-11  3893   0.480E-05    0.111E-06
RMM:  23    -0.369012324512E+02   -0.43337E-09   -0.19803E-11  3540   0.390E-05    0.198E-06
RMM:  24    -0.369012324512E+02   -0.50704E-10   -0.56508E-12  3050   0.281E-05
   1 F= -.36901232E+02 E0= -.36901230E+02  d E =-.369012E+02
 BRION: g(F)=  0.369E-06 g(S)=  0.000E+00
 bond charge predicted
       N       E                     dE             d eps       ncg     rms          rms(c)
DAV:   1    -0.369012319081E+02    0.54311E-06   -0.49389E-05  6324   0.659E-02    0.135E-03
RMM:   2    -0.369012319452E+02   -0.37161E-07   -0.79768E-07  5958   0.789E-03    0.976E-04
RMM:   3    -0.369012319280E+02    0.17281E-07   -0.13670E-07  5970   0.297E-03    0.262E-04
RMM:   4    -0.369012319242E+02    0.37488E-08   -0.91743E-09  6088   0.759E-04    0.734E-05
RMM:   5    -0.369012319252E+02   -0.10044E-08   -0.64793E-10  4836   0.182E-04    0.325E-05
WARNING in EDDRMM: call to ZHEGV failed, returncode =   6  3  1
RMM:   6    -0.369012319251E+02    0.93792E-10   -0.79941E-11  3775   0.821E-05
   2 F= -.36901232E+02 E0= -.36901230E+02  d E =0.526116E-06
 BRION: g(F)=  0.559E-05 g(S)=  0.000E+00 retain N=  1 mean eig= 0.20
 eig:   0.205
 bond charge predicted
       N       E                     dE             d eps       ncg     rms          rms(c)
DAV:   1    -0.369012324949E+02   -0.56966E-06   -0.31259E-05  6652   0.525E-02    0.108E-03
RMM:   2    -0.369012325092E+02   -0.14338E-07   -0.48852E-07  5958   0.627E-03    0.777E-04
RMM:   3    -0.369012324916E+02    0.17600E-07   -0.85311E-08  5975   0.235E-03    0.200E-04
RMM:   4    -0.369012324911E+02    0.55627E-09   -0.55225E-09  6068   0.592E-04    0.578E-05
RMM:   5    -0.369012324906E+02    0.42087E-09   -0.39551E-10  4383   0.145E-04    0.262E-05
WARNING in EDDRMM: call to ZHEGV failed, returncode =   6  3  1
RMM:   6    -0.369012324907E+02   -0.68212E-10   -0.50464E-11  3731   0.705E-05
   3 F= -.36901232E+02 E0= -.36901230E+02  d E =-.565583E-06
 BRION: g(F)=  0.217E-10 g(S)=  0.000E+00 retain N=  1 mean eig= 0.20
 eig:   0.205
 bond charge predicted
       N       E                     dE             d eps       ncg     rms          rms(c)
DAV:   1    -0.369012324899E+02    0.72168E-09    0.54077E-09  5048   0.956E-05    0.262E-06
RMM:   2    -0.369012324904E+02   -0.50090E-09    0.44497E-13  2989   0.293E-05    0.162E-06
RMM:   3    -0.369012324903E+02    0.72760E-10   -0.27420E-12  2853   0.299E-05    0.145E-07
RMM:   4    -0.369012324906E+02   -0.21419E-09   -0.26891E-12  2565   0.273E-05    0.104E-07
RMM:   5    -0.369012324907E+02   -0.12210E-09   -0.24680E-12  2347   0.248E-05    0.673E-08
RMM:   6    -0.369012324903E+02    0.41405E-09   -0.31467E-12  2152   0.227E-05    0.498E-08
RMM:   7    -0.369012324905E+02   -0.21623E-09   -0.11835E-12  2018   0.213E-05    0.428E-08
RMM:   8    -0.369012324905E+02   -0.50477E-10   -0.13784E-12  1900   0.203E-05
   4 F= -.36901232E+02 E0= -.36901230E+02  d E =0.172804E-09
 BRION: g(F)=  0.296E-10 g(S)=  0.000E+00 retain N=  1 mean eig= 0.09
 eig:   0.094
 bond charge predicted
       N       E                     dE             d eps       ncg     rms          rms(c)
DAV:   1    -0.369012324899E+02    0.61982E-09    0.54720E-09  4584   0.541E-05    0.527E-07
RMM:   2    -0.369012324906E+02   -0.73794E-09   -0.27840E-13  1493   0.149E-05    0.325E-07
RMM:   3    -0.369012324905E+02    0.11767E-09   -0.36818E-13  1408   0.146E-05    0.152E-08
RMM:   4    -0.369012324907E+02   -0.20077E-09    0.16736E-14  1384   0.145E-05    0.111E-08
RMM:   5    -0.369012324905E+02    0.19645E-09   -0.21925E-13  1365   0.144E-05    0.539E-09
RMM:   6    -0.369012324904E+02    0.10334E-09    0.23993E-13  1193   0.142E-05    0.450E-09
RMM:   7    -0.369012324904E+02   -0.40245E-10   -0.23097E-13  1123   0.142E-05
   5 F= -.36901232E+02 E0= -.36901230E+02  d E =0.108798E-09
 BRION: g(F)=  0.428E-12 g(S)=  0.000E+00 retain N=  1 mean eig= 0.11
 eig:   0.107
 bond charge predicted
       N       E                     dE             d eps       ncg     rms          rms(c)
DAV:   1    -0.369012324902E+02    0.21657E-09    0.55018E-09  4672   0.183E-05    0.456E-07
RMM:   2    -0.369012324907E+02   -0.54888E-09    0.85528E-15   957   0.589E-06    0.280E-07
RMM:   3    -0.369012324906E+02    0.77762E-10    0.00000E+00   685   0.582E-06    0.511E-09
RMM:   4    -0.369012324903E+02    0.30354E-09    0.00000E+00   713   0.582E-06    0.212E-09
RMM:   5    -0.369012324905E+02   -0.14325E-09    0.00000E+00   933   0.582E-06    0.393E-10
RMM:   6    -0.369012324903E+02    0.13927E-09    0.00000E+00   549   0.582E-06    0.335E-10
RMM:   7    -0.369012324905E+02   -0.14188E-09    0.00000E+00   819   0.582E-06    0.117E-10
RMM:   8    -0.369012324905E+02   -0.35584E-10    0.00000E+00   447   0.582E-06
   6 F= -.36901232E+02 E0= -.36901230E+02  d E =-.922000E-10
 BRION: g(F)=  0.301E-12 g(S)=  0.000E+00 retain N=  1 mean eig= 0.66
 eig:   0.665
 bond charge predicted
       N       E                     dE             d eps       ncg     rms          rms(c)
DAV:   1    -0.369012324901E+02    0.40961E-09    0.54823E-09  4280   0.421E-05    0.775E-07
RMM:   2    -0.369012324906E+02   -0.52341E-09    0.25001E-14   450   0.110E-05    0.480E-07
RMM:   3    -0.369012324905E+02    0.12585E-09    0.00000E+00   453   0.109E-05    0.987E-09
RMM:   4    -0.369012324903E+02    0.16041E-09    0.00000E+00   368   0.109E-05    0.360E-09
RMM:   5    -0.369012324903E+02   -0.88676E-11    0.00000E+00   276   0.109E-05
   7 F= -.36901232E+02 E0= -.36901230E+02  d E =0.199179E-09
 BRION: g(F)=  0.967E-12 g(S)=  0.000E+00 retain N=  1 mean eig= 0.24
 eig:   0.238
 bond charge predicted
       N       E                     dE             d eps       ncg     rms          rms(c)
DAV:   1    -0.369012324902E+02    0.89585E-10    0.54929E-09  4012   0.254E-05    0.434E-07
RMM:   2    -0.369012324906E+02   -0.32855E-09    0.00000E+00   911   0.685E-06    0.269E-07
RMM:   3    -0.369012324905E+02    0.45702E-10    0.00000E+00   447   0.661E-06    0.692E-09
RMM:   4    -0.369012324905E+02   -0.20464E-10    0.00000E+00   301   0.661E-06    0.201E-09
RMM:   5    -0.369012324903E+02    0.17951E-09    0.00000E+00   344   0.661E-06    0.476E-10
RMM:   6    -0.369012324904E+02   -0.72987E-10    0.00000E+00   612   0.661E-06
   8 F= -.36901232E+02 E0= -.36901230E+02  d E =-.983391E-10
 BRION: g(F)=  0.467E-12 g(S)=  0.000E+00 retain N=  1 mean eig= 0.14
 eig:   0.140
 bond charge predicted
       N       E                     dE             d eps       ncg     rms          rms(c)
DAV:   1    -0.369012324899E+02    0.47169E-09    0.55023E-09  3464   0.926E-06    0.121E-07
RMM:   2    -0.369012324905E+02   -0.65177E-09    0.00000E+00   170   0.282E-06    0.745E-08
RMM:   3    -0.369012324907E+02   -0.20793E-09    0.00000E+00   135   0.277E-06    0.203E-09
RMM:   4    -0.369012324907E+02   -0.38654E-11    0.00000E+00   369   0.277E-06    0.526E-10
RMM:   5    -0.369012324904E+02    0.32787E-09    0.00000E+00   107   0.277E-06    0.329E-10
RMM:   6    -0.369012324903E+02    0.72873E-10    0.00000E+00   457   0.277E-06
   9 F= -.36901232E+02 E0= -.36901230E+02  d E =0.818545E-10
 BRION: g(F)=  0.309E-12 g(S)=  0.000E+00 retain N=  1 mean eig= 0.08
 eig:   0.077
 bond charge predicted
       N       E                     dE             d eps       ncg     rms          rms(c)
DAV:   1    -0.369012324899E+02    0.51182E-09    0.54993E-09  3268   0.387E-06    0.713E-08
RMM:   2    -0.369012324908E+02   -0.92859E-09    0.00000E+00   264   0.134E-06    0.439E-08
RMM:   3    -0.369012324907E+02    0.15530E-09    0.00000E+00   770   0.138E-06    0.103E-09
RMM:   4    -0.369012324905E+02    0.13040E-09    0.00000E+00   259   0.138E-06    0.624E-10
RMM:   5    -0.369012324904E+02    0.15496E-09    0.00000E+00   280   0.138E-06    0.184E-10
RMM:   6    -0.369012324903E+02    0.53433E-10    0.00000E+00   274   0.138E-06
  10 F= -.36901232E+02 E0= -.36901230E+02  d E =0.443379E-11
 BRION: g(F)=  0.336E-13 g(S)=  0.000E+00 retain N=  1 mean eig= 0.06
 eig:   0.058
 reached required accuracy - stopping structural energy minimisation
