gr                                      
           1
     4.337146    0.000000    0.000000
     0.000000    2.460896    0.000000
     0.000000    0.000000   19.753833
   C 
   4
Direct configuration=     1
   0.99964215  0.00000000  0.00000000
   0.16702452  0.50000000  0.00000000
   0.49964215  0.50000000  0.00000000
   0.66702452  0.00000000  0.00000000
Direct configuration=     2
   0.99965754  0.00000000  0.00000000
   0.16700913  0.50000000 -0.00000000
   0.49965754  0.50000000  0.00000000
   0.66700913  0.00000000 -0.00000000
Direct configuration=     3
   0.99964530  0.00000000  0.00000000
   0.16702137  0.50000000 -0.00000000
   0.49964530  0.50000000  0.00000000
   0.66702137  0.00000000 -0.00000000
Direct configuration=     4
   0.99964527  0.00000000  0.00000000
   0.16702139  0.50000000 -0.00000000
   0.49964527  0.50000000  0.00000000
   0.66702139  0.00000000 -0.00000000
Direct configuration=     5
   0.99964529  0.00000000  0.00000000
   0.16702138  0.50000000 -0.00000000
   0.49964529  0.50000000  0.00000000
   0.66702138  0.00000000 -0.00000000
Direct configuration=     6
   0.99964529 -0.00000000  0.00000000
   0.16702138  0.50000000 -0.00000000
   0.49964529  0.50000000  0.00000000
   0.66702138  0.00000000 -0.00000000
Direct configuration=     7
   0.99964530  0.00000000 -0.00000000
   0.16702137  0.50000000  0.00000000
   0.49964530  0.50000000 -0.00000000
   0.66702137 -0.00000000  0.00000000
Direct configuration=     8
   0.99964529  0.00000000 -0.00000000
   0.16702137  0.50000000  0.00000000
   0.49964529  0.50000000 -0.00000000
   0.66702137 -0.00000000  0.00000000
Direct configuration=     9
   0.99964529  0.00000000 -0.00000000
   0.16702137  0.50000000  0.00000000
   0.49964529  0.50000000 -0.00000000
   0.66702137 -0.00000000  0.00000000
Direct configuration=    10
   0.99964529  0.00000000 -0.00000000
   0.16702137  0.50000000  0.00000000
   0.49964529  0.50000000 -0.00000000
   0.66702137 -0.00000000  0.00000000
