    4    4  400    1
  0.5270948E+02  0.4401893E-09  0.2455401E-09  0.1950684E-08  0.5000000E-15
  1.000000000000000E-004
  CAR 
 gr                                      
     16    247     12
 
  0.0000000E+00  0.0000000E+00  0.0000000E+00  0.1157407E-02
    1      -22.045327
    2      -17.302575
    3      -15.800872
    4      -10.198130
    5       -8.736614
    6       -6.046827
    7       -5.717694
    8       -5.379670
    9       -1.205208
   10        0.549201
   11        1.346607
   12        1.742275
 
  0.4166667E-01  0.0000000E+00  0.0000000E+00  0.2314815E-02
    1      -22.035666
    2      -17.413534
    3      -15.674991
    4      -10.186683
    5       -8.727317
    6       -6.091424
    7       -5.737269
    8       -5.436871
    9       -1.132363
   10        0.562259
   11        1.359861
   12        1.755698
 
  0.8333333E-01  0.0000000E+00  0.0000000E+00  0.2314815E-02
    1      -22.006690
    2      -17.675245
    3      -15.368588
    4      -10.152363
    5       -8.699476
    6       -6.223028
    7       -5.794990
    8       -5.597197
    9       -0.925257
   10        0.601443
   11        1.399619
   12        1.795967
 
  0.1250000E+00  0.0000000E+00  0.0000000E+00  0.2314815E-02
    1      -21.958418
    2      -17.996172
    3      -14.973423
    4      -10.095227
    5       -8.653244
    6       -6.435511
    7       -5.887999
    8       -5.834554
    9       -0.610451
   10        0.666777
   11        1.465865
   12        1.863088
 
  0.1666667E+00  0.0000000E+00  0.0000000E+00  0.2314815E-02
    1      -21.890886
    2      -18.333779
    3      -14.532410
    4      -10.015374
    5       -8.588880
    6       -6.719952
    7       -6.121440
    8       -6.011992
    9       -0.216236
   10        0.758290
   11        1.558570
   12        1.957067
 
  0.2083333E+00  0.0000000E+00  0.0000000E+00  0.2314815E-02
    1      -21.804146
    2      -18.670908
    3      -14.063254
    4       -9.912947
    5       -8.506757
    6       -7.065995
    7       -6.436058
    8       -6.161765
    9        0.234447
   10        0.876005
   11        1.677690
   12        2.077907
 
  0.2500000E+00  0.0000000E+00  0.0000000E+00  0.2314815E-02
    1      -21.698264
    2      -18.999906
    3      -13.574336
    4       -9.788138
    5       -8.407376
    6       -7.463052
    7       -6.763111
    8       -6.331737
    9        0.724754
   10        1.019924
   11        1.823152
   12        2.225610
 
  0.2916667E+00  0.0000000E+00  0.0000000E+00  0.2314815E-02
    1      -21.573325
    2      -19.316896
    3      -13.070464
    4       -9.641196
    5       -8.291375
    6       -7.901121
    7       -7.092280
    8       -6.516383
    9        1.190036
   10        1.242326
   11        1.994843
   12        2.400175
 
  0.3333333E+00  0.0000000E+00  0.0000000E+00  0.2314815E-02
    1      -21.429436
    2      -19.619686
    3      -12.554994
    4       -9.472438
    5       -8.371224
    6       -8.159555
    7       -7.416617
    8       -6.710527
    9        1.386309
   10        1.777427
   11        2.192564
   12        2.601599
 
  0.3750000E+00  0.0000000E+00  0.0000000E+00  0.2314815E-02
    1      -21.266723
    2      -19.906915
    3      -12.030719
    4       -9.282264
    5       -8.865562
    6       -8.012904
    7       -7.731356
    8       -6.909505
    9        1.608698
   10        2.320938
   11        2.415939
   12        2.829873
 
  0.4166667E+00  0.0000000E+00  0.0000000E+00  0.2314815E-02
    1      -21.085342
    2      -20.177673
    3      -11.500294
    4       -9.377471
    5       -9.071172
    6       -8.033155
    7       -7.852625
    8       -7.109224
    9        1.857139
   10        2.664106
   11        2.859153
   12        3.084985
 
  0.4583333E+00  0.0000000E+00  0.0000000E+00  0.2314815E-02
    1      -20.885482
    2      -20.431318
    3      -10.966483
    4       -9.901314
    5       -8.839794
    6       -8.319604
    7       -7.680176
    8       -7.306159
    9        2.131546
   10        2.757765
   11        2.934487
   12        3.311046
 
  0.5000000E+00  0.0000000E+00  0.0000000E+00  0.1157407E-02
    1      -20.667377
    2      -20.667377
    3      -10.432332
    4      -10.432332
    5       -8.588930
    6       -8.588930
    7       -7.497317
    8       -7.497317
    9        2.431806
   10        2.431806
   11        3.213955
   12        3.213955
 
  0.0000000E+00  0.2777778E-01  0.0000000E+00  0.2314815E-02
    1      -22.031468
    2      -17.290518
    3      -15.789040
    4      -10.181701
    5       -8.800262
    6       -6.072137
    7       -5.777167
    8       -5.362974
    9       -1.207371
   10        0.567971
   11        1.365557
   12        1.761466
 
  0.4166667E-01  0.2777778E-01  0.0000000E+00  0.4629630E-02
    1      -22.021809
    2      -17.401367
    3      -15.663313
    4      -10.170259
    5       -8.790954
    6       -6.117170
    7       -5.795713
    8       -5.420284
    9       -1.134516
   10        0.581029
   11        1.378811
   12        1.774888
 
  0.8333333E-01  0.2777778E-01  0.0000000E+00  0.4629630E-02
    1      -21.992836
    2      -17.662865
    3      -15.357254
    4      -10.135950
    5       -8.763081
    6       -6.249168
    7       -5.851370
    8       -5.580866
    9       -0.927452
   10        0.620212
   11        1.418567
   12        1.815158
 
  0.1250000E+00  0.2777778E-01  0.0000000E+00  0.4629630E-02
    1      -21.944572
    2      -17.983582
    3      -14.962519
    4      -10.078833
    5       -8.716792
    6       -6.460802
    7       -5.942761
    8       -5.818501
    9       -0.612863
   10        0.685547
   11        1.484809
   12        1.882280
 
  0.1666667E+00  0.2777778E-01  0.0000000E+00  0.4629630E-02
    1      -21.877051
    2      -18.321006
    3      -14.522010
    4       -9.999007
    5       -8.652343
    6       -6.742979
    7       -6.105607
    8       -6.066102
    9       -0.219125
   10        0.777062
   11        1.577511
   12        1.976259
 
  0.2083333E+00  0.2777778E-01  0.0000000E+00  0.4629630E-02
    1      -21.790327
    2      -18.657976
    3      -14.053440
    4       -9.896613
    5       -8.570102
    6       -7.085791
    7       -6.420365
    8       -6.216055
    9        0.230800
   10        0.894779
   11        1.696625
   12        2.097100
 
  0.2500000E+00  0.2777778E-01  0.0000000E+00  0.4629630E-02
    1      -21.684463
    2      -18.986836
    3      -13.565205
    4       -9.771845
    5       -8.470562
    6       -7.479178
    7       -6.747484
    8       -6.386743
    9        0.720082
   10        1.038702
   11        1.842084
   12        2.244804
 
  0.2916667E+00  0.2777778E-01  0.0000000E+00  0.4629630E-02
    1      -21.559548
    2      -19.303708
    3      -13.062133
    4       -9.624952
    5       -8.354352
    6       -7.913533
    7       -7.076666
    8       -6.572385
    9        1.208819
   10        1.236397
   11        2.013771
   12        2.419372
 
  0.3333333E+00  0.2777778E-01  0.0000000E+00  0.4629630E-02
    1      -21.415686
    2      -19.606394
    3      -12.547602
    4       -9.456250
    5       -8.380125
    6       -8.222265
    7       -7.400975
    8       -6.767621
    9        1.405099
   10        1.770072
   11        2.211493
   12        2.620798
 
  0.3750000E+00  0.2777778E-01  0.0000000E+00  0.4629630E-02
    1      -21.253005
    2      -19.893533
    3      -12.024432
    4       -9.266138
    5       -8.871275
    6       -8.075275
    7       -7.715664
    8       -6.967673
    9        1.627496
   10        2.312157
   11        2.434875
   12        2.849076
 
  0.4166667E+00  0.2777778E-01  0.0000000E+00  0.4629630E-02
    1      -21.071662
    2      -20.164214
    3      -11.495308
    4       -9.380367
    5       -9.055114
    6       -8.017396
    7       -7.914572
    8       -7.168384
    9        1.875945
   10        2.683058
   11        2.849688
   12        3.104194
 
  0.4583333E+00  0.2777778E-01  0.0000000E+00  0.4629630E-02
    1      -20.871845
    2      -20.417791
    3      -10.963027
    4       -9.901762
    5       -8.823809
    6       -8.303772
    7       -7.741601
    8       -7.366197
    9        2.150363
   10        2.776620
   11        2.953439
   12        3.311028
 
  0.5000000E+00  0.2777778E-01  0.0000000E+00  0.2314815E-02
    1      -20.653791
    2      -20.653791
    3      -10.430675
    4      -10.430675
    5       -8.573020
    6       -8.573020
    7       -7.558109
    8       -7.558109
    9        2.450638
   10        2.450638
   11        3.232330
   12        3.232330
 
  0.0000000E+00  0.5555556E-01  0.0000000E+00  0.2314815E-02
    1      -21.989900
    2      -17.254351
    3      -15.753684
    4      -10.132451
    5       -8.986032
    6       -6.147734
    7       -5.950661
    8       -5.312909
    9       -1.214661
   10        0.624279
   11        1.422401
   12        1.819038
 
  0.4166667E-01  0.5555556E-01  0.0000000E+00  0.4629630E-02
    1      -21.980245
    2      -17.364872
    3      -15.628416
    4      -10.121020
    5       -8.976688
    6       -6.195978
    7       -5.964251
    8       -5.370552
    9       -1.141774
   10        0.637336
   11        1.435652
   12        1.832461
 
  0.8333333E-01  0.5555556E-01  0.0000000E+00  0.4629630E-02
    1      -21.951286
    2      -17.625737
    3      -15.323391
    4      -10.086746
    5       -8.948705
    6       -6.331539
    7       -6.011414
    8       -5.531923
    9       -0.934828
   10        0.676518
   11        1.475402
   12        1.872730
 
  0.1250000E+00  0.5555556E-01  0.0000000E+00  0.4629630E-02
    1      -21.903046
    2      -17.945831
    3      -14.929961
    4      -10.029687
    5       -8.902225
    6       -6.541502
    7       -6.097159
    8       -5.770414
    9       -0.620900
   10        0.741852
   11        1.541634
   12        1.939852
 
  0.1666667E+00  0.5555556E-01  0.0000000E+00  0.4629630E-02
    1      -21.835560
    2      -18.282703
    3      -14.490984
    4       -9.949941
    5       -8.837491
    6       -6.816842
    7       -6.218647
    8       -6.058192
    9       -0.228618
   10        0.833368
   11        1.634323
   12        2.033832
 
  0.2083333E+00  0.5555556E-01  0.0000000E+00  0.4629630E-02
    1      -21.748880
    2      -18.619196
    3      -14.024202
    4       -9.847651
    5       -8.754854
    6       -7.149523
    7       -6.373373
    8       -6.369609
    9        0.218989
   10        0.951089
   11        1.753423
   12        2.154676
 
  0.2500000E+00  0.5555556E-01  0.0000000E+00  0.4629630E-02
    1      -21.643072
    2      -18.947643
    3      -13.538061
    4       -9.723010
    5       -8.654783
    6       -7.531304
    7       -6.700692
    8       -6.543045
    9        0.705134
   10        1.095019
   11        1.898867
   12        2.302384
 
  0.2916667E+00  0.5555556E-01  0.0000000E+00  0.4629630E-02
    1      -21.518227
    2      -19.264157
    3      -13.037446
    4       -9.576264
    5       -8.537881
    6       -7.953898
    7       -7.029906
    8       -6.732278
    9        1.217593
   10        1.265147
   11        2.070544
   12        2.476957
 
  0.3333333E+00  0.5555556E-01  0.0000000E+00  0.4629630E-02
    1      -21.374447
    2      -19.566533
    3      -12.525809
    4       -9.407732
    5       -8.409370
    6       -8.404905
    7       -7.354132
    8       -6.931345
    9        1.461441
   10        1.746877
   11        2.268267
   12        2.678392
 
  0.3750000E+00  0.5555556E-01  0.0000000E+00  0.4629630E-02
    1      -21.211863
    2      -19.853403
    3      -12.006052
    4       -9.217809
    5       -8.890449
    6       -8.256790
    7       -7.668661
    8       -7.135095
    9        1.683854
   10        2.284483
   11        2.491669
   12        2.906680
 
  0.4166667E+00  0.5555556E-01  0.0000000E+00  0.4629630E-02
    1      -21.030633
    2      -20.123850
    3      -11.480957
    4       -9.390664
    5       -9.006993
    6       -8.094682
    7       -7.970189
    8       -7.339175
    9        1.932322
   10        2.739903
   11        2.819329
   12        3.161812
 
  0.4583333E+00  0.5555556E-01  0.0000000E+00  0.4629630E-02
    1      -20.830948
    2      -20.377224
    3      -10.953435
    4       -9.904369
    5       -8.775910
    6       -8.256339
    7       -7.919978
    8       -7.539944
    9        2.206762
   10        2.833097
   11        3.010287
   12        3.302668
 
  0.5000000E+00  0.5555556E-01  0.0000000E+00  0.2314815E-02
    1      -20.613047
    2      -20.613047
    3      -10.426693
    4      -10.426693
    5       -8.525353
    6       -8.525353
    7       -7.734378
    8       -7.734378
    9        2.507067
   10        2.507067
   11        3.287080
   12        3.287080
 
  0.0000000E+00  0.8333333E-01  0.0000000E+00  0.2314815E-02
    1      -21.920657
    2      -17.194086
    3      -15.695241
    4      -10.050487
    5       -9.279873
    6       -6.272612
    7       -6.224964
    8       -5.229541
    9       -1.229478
   10        0.718121
   11        1.517114
   12        1.914993
 
  0.4166667E-01  0.8333333E-01  0.0000000E+00  0.4629630E-02
    1      -21.911010
    2      -17.304078
    3      -15.570734
    4      -10.039076
    5       -9.270455
    6       -6.343734
    7       -6.212861
    8       -5.287772
    9       -1.156525
   10        0.731177
   11        1.530361
   12        1.928415
 
  0.8333333E-01  0.8333333E-01  0.0000000E+00  0.4629630E-02
    1      -21.882075
    2      -17.563907
    3      -15.267443
    4      -10.004861
    5       -9.242246
    6       -6.491218
    7       -6.240125
    8       -5.450528
    9       -0.949759
   10        0.770354
   11        1.570100
   12        1.968684
 
  0.1250000E+00  0.8333333E-01  0.0000000E+00  0.4629630E-02
    1      -21.833875
    2      -17.882969
    3      -14.876235
    4       -9.947900
    5       -9.195375
    6       -6.697894
    7       -6.317254
    8       -5.690508
    9       -0.636958
   10        0.835680
   11        1.636314
   12        2.035805
 
  0.1666667E+00  0.8333333E-01  0.0000000E+00  0.4629630E-02
    1      -21.766446
    2      -18.218925
    3      -14.439892
    4       -9.868293
    5       -9.130061
    6       -6.959992
    7       -6.437734
    8       -5.979447
    9       -0.247188
   10        0.927189
   11        1.728978
   12        2.129785
 
  0.2083333E+00  0.8333333E-01  0.0000000E+00  0.4629630E-02
    1      -21.679841
    2      -18.554621
    3      -13.976209
    4       -9.766181
    5       -9.046622
    6       -7.273463
    7       -6.592825
    8       -6.295349
    9        0.196414
   10        1.044904
   11        1.848051
   12        2.250629
 
  0.2500000E+00  0.8333333E-01  0.0000000E+00  0.4629630E-02
    1      -21.574129
    2      -18.882378
    3      -13.493717
    4       -9.641755
    5       -8.945483
    6       -7.633316
    7       -6.773445
    8       -6.623003
    9        0.677132
   10        1.188834
   11        1.993467
   12        2.398341
 
  0.2916667E+00  0.8333333E-01  0.0000000E+00  0.4629630E-02
    1      -21.449398
    2      -19.198293
    3      -12.997414
    4       -9.495265
    5       -8.827189
    6       -8.033691
    7       -6.971221
    8       -6.952261
    9        1.182906
   10        1.358965
   11        2.165123
   12        2.572921
 
  0.3333333E+00  0.8333333E-01  0.0000000E+00  0.4629630E-02
    1      -21.305755
    2      -19.500149
    3      -12.490884
    4       -9.327025
    5       -8.692428
    6       -8.468206
    7       -7.276333
    8       -7.178999
    9        1.555267
   10        1.704519
   11        2.362842
   12        2.774364
 
  0.3750000E+00  0.8333333E-01  0.0000000E+00  0.4629630E-02
    1      -21.143333
    2      -19.786568
    3      -11.977190
    4       -9.137428
    5       -8.930394
    6       -8.542050
    7       -7.590580
    8       -7.390913
    9        1.777690
   10        2.234067
   11        2.586281
   12        3.002664
 
  0.4166667E+00  0.8333333E-01  0.0000000E+00  0.4629630E-02
    1      -20.962292
    2      -20.056623
    3      -11.459306
    4       -9.414071
    5       -8.926970
    6       -8.377103
    7       -7.891752
    8       -7.602256
    9        2.026167
   10        2.762681
   11        2.834612
   12        3.257813
 
  0.4583333E+00  0.8333333E-01  0.0000000E+00  0.4629630E-02
    1      -20.762828
    2      -20.309656
    3      -10.940361
    4       -9.913565
    5       -8.696270
    6       -8.198875
    7       -8.177507
    8       -7.809269
    9        2.300617
   10        2.926986
   11        3.105007
   12        3.264778
 
  0.5000000E+00  0.8333333E-01  0.0000000E+00  0.2314815E-02
    1      -20.545183
    2      -20.545183
    3      -10.423812
    4      -10.423812
    5       -8.446114
    6       -8.446114
    7       -8.008947
    8       -8.008947
    9        2.600934
   10        2.600934
   11        3.376259
   12        3.376260
 
  0.0000000E+00  0.1111111E+00  0.0000000E+00  0.2314815E-02
    1      -21.823799
    2      -17.109743
    3      -15.614534
    4       -9.935990
    5       -9.662330
    6       -6.582165
    7       -6.445027
    8       -5.112981
    9       -1.255836
   10        0.849492
   11        1.649657
   12        2.049331
 
  0.4166667E-01  0.1111111E+00  0.0000000E+00  0.4629630E-02
    1      -21.814163
    2      -17.219029
    3      -15.491081
    4       -9.924607
    5       -9.652780
    6       -6.638373
    7       -6.444103
    8       -5.172109
    9       -1.182751
   10        0.862543
   11        1.662898
   12        2.062752
 
  0.8333333E-01  0.1111111E+00  0.0000000E+00  0.4629630E-02
    1      -21.785262
    2      -17.477451
    3      -15.190254
    4       -9.890479
    5       -9.624165
    6       -6.774994
    7       -6.471594
    8       -5.336966
    9       -0.976185
   10        0.901707
   11        1.702618
   12        2.103019
 
  0.1250000E+00  0.1111111E+00  0.0000000E+00  0.4629630E-02
    1      -21.737119
    2      -17.795089
    3      -14.802272
    4       -9.833663
    5       -9.576590
    6       -6.967170
    7       -6.547189
    8       -5.579177
    9       -0.664993
   10        0.967012
   11        1.768802
   12        2.170136
 
  0.1666667E+00  0.1111111E+00  0.0000000E+00  0.4629630E-02
    1      -21.669770
    2      -18.129765
    3      -14.369817
    4       -9.754258
    5       -9.510232
    6       -7.206890
    7       -6.670635
    8       -5.869828
    9       -0.278898
   10        1.058495
   11        1.861426
   12        2.264112
 
  0.2083333E+00  0.1111111E+00  0.0000000E+00  0.4629630E-02
    1      -21.583271
    2      -18.464341
    3      -13.910765
    4       -9.652406
    5       -9.425350
    6       -7.490399
    7       -6.834897
    8       -6.186774
    9        0.158816
   10        1.176184
   11        1.980450
   12        2.384954
 
  0.2500000E+00  0.1111111E+00  0.0000000E+00  0.4629630E-02
    1      -21.477692
    2      -18.791125
    3      -13.433788
    4       -9.528298
    5       -9.322284
    6       -7.815249
    7       -7.029970
    8       -6.514895
    9        0.631552
   10        1.320091
   11        2.125816
   12        2.532666
 
  0.2916667E+00  0.1111111E+00  0.0000000E+00  0.4629630E-02
    1      -21.353121
    2      -19.106196
    3      -12.944070
    4       -9.382182
    5       -9.201472
    6       -8.178945
    7       -7.245204
    8       -6.844194
    9        1.127481
   10        1.490204
   11        2.297430
   12        2.707248
 
  0.3333333E+00  0.1111111E+00  0.0000000E+00  0.4629630E-02
    1      -21.209671
    2      -19.407319
    3      -12.445429
    4       -9.214370
    5       -9.063461
    6       -8.578083
    7       -7.471037
    8       -7.168016
    9        1.637716
   10        1.686492
   11        2.495136
   12        2.908698
 
  0.3750000E+00  0.1111111E+00  0.0000000E+00  0.4629630E-02
    1      -21.047477
    2      -19.693100
    3      -11.941214
    4       -9.025253
    5       -9.008131
    6       -8.908927
    7       -7.699863
    8       -7.481830
    9        1.908900
   10        2.154966
   11        2.718624
   12        3.137008
 
  0.4166667E+00  0.1111111E+00  0.0000000E+00  0.4629630E-02
    1      -20.866702
    2      -19.962603
    3      -11.434749
    4       -9.463763
    5       -8.815322
    6       -8.738705
    7       -7.926063
    8       -7.782462
    9        2.157359
   10        2.672193
   11        2.967121
   12        3.392195
 
  0.4583333E+00  0.1111111E+00  0.0000000E+00  0.4629630E-02
    1      -20.667550
    2      -20.215157
    3      -10.929584
    4       -9.939402
    5       -8.585189
    6       -8.553824
    7       -8.145604
    8       -8.067625
    9        2.431783
   10        3.058075
   11        3.177709
   12        3.237549
 
  0.5000000E+00  0.1111111E+00  0.0000000E+00  0.2314815E-02
    1      -20.450267
    2      -20.450267
    3      -10.429659
    4      -10.429659
    5       -8.355576
    6       -8.355576
    7       -8.335628
    8       -8.335628
    9        2.732066
   10        2.732066
   11        3.488160
   12        3.488161
 
  0.0000000E+00  0.1388889E+00  0.0000000E+00  0.2314815E-02
    1      -21.699413
    2      -17.001354
    3      -15.512946
    4      -10.112122
    5       -9.789222
    6       -7.003380
    7       -6.662458
    8       -4.963388
    9       -1.299301
   10        1.018376
   11        1.819970
   12        2.222052
 
  0.4166667E-01  0.1388889E+00  0.0000000E+00  0.4629630E-02
    1      -21.689791
    2      -17.109796
    3      -15.390839
    4      -10.102343
    5       -9.777880
    6       -7.049058
    7       -6.667603
    8       -5.023820
    9       -1.225955
   10        1.031419
   11        1.833201
   12        2.235472
 
  0.8333333E-01  0.1388889E+00  0.0000000E+00  0.4629630E-02
    1      -21.660933
    2      -17.366490
    3      -15.093264
    4      -10.073029
    5       -9.743870
    6       -7.171869
    7       -6.696108
    8       -5.191689
    9       -1.019505
   10        1.070559
   11        1.872891
   12        2.275733
 
  0.1250000E+00  0.1388889E+00  0.0000000E+00  0.4629630E-02
    1      -21.612863
    2      -17.682331
    3      -14.709687
    4      -10.024239
    5       -9.687251
    6       -7.350130
    7       -6.766118
    8       -5.437042
    9       -0.710388
   10        1.135825
   11        1.939025
   12        2.342843
 
  0.1666667E+00  0.1388889E+00  0.0000000E+00  0.4629630E-02
    1      -21.545619
    2      -18.015367
    3      -14.282674
    4       -9.956074
    5       -9.608122
    6       -7.570349
    7       -6.885105
    8       -5.730054
    9       -0.329241
   10        1.227257
   11        2.031582
   12        2.436809
 
  0.2083333E+00  0.1388889E+00  0.0000000E+00  0.4629630E-02
    1      -21.459256
    2      -18.348496
    3      -13.830224
    4       -9.868674
    5       -9.506625
    6       -7.825396
    7       -7.051770
    8       -6.048400
    9        0.100488
   10        1.344887
   11        2.150524
   12        2.557641
 
  0.2500000E+00  0.1388889E+00  0.0000000E+00  0.4629630E-02
    1      -21.353847
    2      -18.674018
    3      -13.361248
    4       -9.762218
    5       -9.382951
    6       -8.112005
    7       -7.258953
    8       -6.377110
    9        0.562397
   10        1.488735
   11        2.295800
   12        2.705346
 
  0.2916667E+00  0.1388889E+00  0.0000000E+00  0.4629630E-02
    1      -21.229485
    2      -18.987990
    3      -12.881253
    4       -9.636922
    5       -9.237346
    6       -8.429418
    7       -7.495725
    8       -6.706411
    9        1.044976
   10        1.658794
   11        2.467330
   12        2.879925
 
  0.3333333E+00  0.1388889E+00  0.0000000E+00  0.4629630E-02
    1      -21.086285
    2      -19.288159
    3      -12.394481
    4       -9.493036
    5       -9.070121
    6       -8.778073
    7       -7.749539
    8       -7.029844
    9        1.539733
   10        1.855029
   11        2.664986
   12        3.081375
 
  0.3750000E+00  0.1388889E+00  0.0000000E+00  0.4629630E-02
    1      -20.924385
    2      -19.573111
    3      -11.904822
    4       -9.330848
    5       -9.158041
    6       -8.881664
    7       -8.008541
    8       -7.343025
    9        2.039940
   10        2.077385
   11        2.888524
   12        3.309690
 
  0.4166667E+00  0.1388889E+00  0.0000000E+00  0.4629630E-02
    1      -20.743957
    2      -19.841894
    3      -11.416281
    4       -9.567729
    5       -9.150696
    6       -8.672460
    7       -8.263390
    8       -7.642888
    9        2.325784
   10        2.539762
   11        3.137293
   12        3.564862
 
  0.4583333E+00  0.1388889E+00  0.0000000E+00  0.4629630E-02
    1      -20.545208
    2      -20.093825
    3      -10.933233
    4      -10.003556
    5       -8.953005
    6       -8.507872
    7       -8.443110
    8       -7.927219
    9        2.600133
   10        3.033060
   11        3.226197
   12        3.407781
 
  0.5000000E+00  0.1388889E+00  0.0000000E+00  0.2314815E-02
    1      -20.328394
    2      -20.328394
    3      -10.460550
    4      -10.460550
    5       -8.738386
    6       -8.738386
    7       -8.194375
    8       -8.194375
    9        2.900317
   10        2.900317
   11        3.497626
   12        3.497626
 
  0.0000000E+00  0.1666667E+00  0.0000000E+00  0.2314815E-02
    1      -21.547612
    2      -16.868961
    3      -15.392779
    4      -10.608430
    5       -9.610537
    6       -7.471234
    7       -6.921597
    8       -4.780973
    9       -1.366807
   10        1.224750
   11        2.027967
   12        2.433156
 
  0.4166667E-01  0.1666667E+00  0.0000000E+00  0.4629630E-02
    1      -21.538008
    2      -16.976479
    3      -15.272318
    4      -10.598261
    5       -9.599246
    6       -7.514814
    7       -6.923870
    8       -4.843274
    9       -1.292941
   10        1.237781
   11        2.041181
   12        2.446573
 
  0.8333333E-01  0.1666667E+00  0.0000000E+00  0.4629630E-02
    1      -21.509204
    2      -17.231199
    3      -14.978924
    4      -10.567744
    5       -9.565392
    6       -7.633819
    7       -6.941830
    8       -5.015393
    9       -1.086291
   10        1.276885
   11        2.080822
   12        2.486827
 
  0.1250000E+00  0.1666667E+00  0.0000000E+00  0.4629630E-02
    1      -21.461223
    2      -17.544899
    3      -14.601288
    4      -10.516853
    5       -9.509032
    6       -7.807091
    7       -6.994675
    8       -5.265063
    9       -0.779600
   10        1.342091
   11        2.146874
   12        2.553923
 
  0.1666667E+00  0.1666667E+00  0.0000000E+00  0.4629630E-02
    1      -21.394106
    2      -17.875939
    3      -14.181869
    4      -10.445529
    5       -9.430267
    6       -8.018498
    7       -7.094797
    8       -5.561215
    9       -0.404724
   10        1.433438
   11        2.239314
   12        2.647871
 
  0.2083333E+00  0.1666667E+00  0.0000000E+00  0.4629630E-02
    1      -21.307911
    2      -18.207285
    3      -13.738898
    4      -10.353672
    5       -9.329238
    6       -8.258015
    7       -7.246330
    8       -5.881346
    9        0.014754
   10        1.550967
   11        2.358110
   12        2.768681
 
  0.2500000E+00  0.1666667E+00  0.0000000E+00  0.4629630E-02
    1      -21.202712
    2      -18.531241
    3      -13.281716
    4      -10.241106
    5       -9.206137
    6       -8.519857
    7       -7.446985
    8       -6.210740
    9        0.462769
   10        1.694706
   11        2.503212
   12        2.916365
 
  0.2916667E+00  0.1666667E+00  0.0000000E+00  0.4629630E-02
    1      -21.078607
    2      -18.843848
    3      -12.816456
    4      -10.107551
    5       -9.061209
    6       -8.801369
    7       -7.689562
    8       -6.539946
    9        0.928280
   10        1.864656
   11        2.674555
   12        3.090928
 
  0.3333333E+00  0.1666667E+00  0.0000000E+00  0.4629630E-02
    1      -20.935713
    2      -19.142830
    3      -12.348199
    4       -9.952579
    5       -9.102518
    6       -8.894763
    7       -7.963168
    8       -6.862778
    9        1.403298
   10        2.060788
   11        2.872046
   12        3.292370
 
  0.3750000E+00  0.1666667E+00  0.0000000E+00  0.4629630E-02
    1      -20.774177
    2      -19.426752
    3      -11.881935
    4       -9.775580
    5       -9.425390
    6       -8.707184
    7       -8.254525
    8       -7.175051
    9        1.881661
   10        2.283041
   11        3.095540
   12        3.520683
 
  0.4166667E+00  0.1666667E+00  0.0000000E+00  0.4629630E-02
    1      -20.594178
    2      -19.694641
    3      -11.423011
    4       -9.773137
    5       -9.575785
    6       -8.549693
    7       -8.498950
    8       -7.473840
    9        2.358309
   10        2.531329
   11        3.344697
   12        3.776048
 
  0.4583333E+00  0.1666667E+00  0.0000000E+00  0.4629630E-02
    1      -20.395930
    2      -19.945798
    3      -10.977244
    4      -10.148209
    5       -9.352457
    6       -8.836283
    7       -8.270652
    8       -7.757026
    9        2.805544
   10        2.828825
   11        3.431216
   12        3.614127
 
  0.5000000E+00  0.1666667E+00  0.0000000E+00  0.2314815E-02
    1      -20.179696
    2      -20.179696
    3      -10.550589
    4      -10.550589
    5       -9.105443
    6       -9.105443
    7       -8.023031
    8       -8.023031
    9        3.105558
   10        3.105558
   11        3.288873
   12        3.288873
 