<?xml version="1.0" encoding="ISO-8859-1"?>
<modeling>
 <generator>
  <i name="program" type="string">vasp </i>
  <i name="version" type="string">5.3.5  </i>
  <i name="subversion" type="string">31Mar14 (build Mar 02 2015 18:14:16) complex                          parallel </i>
  <i name="platform" type="string">LinuxIFC </i>
  <i name="date" type="string">2018 08 10 </i>
  <i name="time" type="string">14:34:35 </i>
 </generator>
 <incar>
  <i type="string" name="SYSTEM">  gr</i>
  <i type="string" name="PREC">accurate : accuracy</i>
  <i type="string" name="ALGO"> FAST.</i>
  <i type="int" name="NELM">   100</i>
  <i type="int" name="NELMDL">    -3</i>
  <i type="int" name="NELMIN">     5</i>
  <i type="int" name="IBRION">     1</i>
  <i name="EDIFF">      0.00000000</i>
  <i name="EDIFFG">     -0.00000100</i>
  <i type="int" name="NSW">   400</i>
  <i type="int" name="ISIF">     2</i>
  <i name="ENCUT">   2000.00000000</i>
  <i type="int" name="ISMEAR">     0</i>
  <i name="SIGMA">      0.05000000</i>
  <i type="int" name="NWRITE">     2</i>
  <i type="logical" name="LWAVE"> F  </i>
  <i type="logical" name="LCHARG"> F  </i>
  <i type="int" name="NELM">   100</i>
 </incar>
 <kpoints>
  <generation param="Gamma">
   <v type="int" name="divisions">      24       36        1 </v>
   <v name="usershift">      0.00000000       0.00000000       0.00000000 </v>
   <v name="genvec1">      0.04166667       0.00000000       0.00000000 </v>
   <v name="genvec2">      0.00000000       0.02777778       0.00000000 </v>
   <v name="genvec3">      0.00000000       0.00000000       1.00000000 </v>
   <v name="shift">      0.00000000       0.00000000       0.00000000 </v>
  </generation>
  <varray name="kpointlist" >
   <v>       0.00000000       0.00000000       0.00000000 </v>
   <v>       0.04166667       0.00000000       0.00000000 </v>
   <v>       0.08333333       0.00000000       0.00000000 </v>
   <v>       0.12500000       0.00000000       0.00000000 </v>
   <v>       0.16666667       0.00000000       0.00000000 </v>
   <v>       0.20833333       0.00000000       0.00000000 </v>
   <v>       0.25000000       0.00000000       0.00000000 </v>
   <v>       0.29166667       0.00000000       0.00000000 </v>
   <v>       0.33333333       0.00000000       0.00000000 </v>
   <v>       0.37500000       0.00000000       0.00000000 </v>
   <v>       0.41666667       0.00000000       0.00000000 </v>
   <v>       0.45833333       0.00000000       0.00000000 </v>
   <v>       0.50000000       0.00000000       0.00000000 </v>
   <v>       0.00000000       0.02777778       0.00000000 </v>
   <v>       0.04166667       0.02777778       0.00000000 </v>
   <v>       0.08333333       0.02777778       0.00000000 </v>
   <v>       0.12500000       0.02777778       0.00000000 </v>
   <v>       0.16666667       0.02777778       0.00000000 </v>
   <v>       0.20833333       0.02777778       0.00000000 </v>
   <v>       0.25000000       0.02777778       0.00000000 </v>
   <v>       0.29166667       0.02777778       0.00000000 </v>
   <v>       0.33333333       0.02777778       0.00000000 </v>
   <v>       0.37500000       0.02777778       0.00000000 </v>
   <v>       0.41666667       0.02777778       0.00000000 </v>
   <v>       0.45833333       0.02777778       0.00000000 </v>
   <v>       0.50000000       0.02777778       0.00000000 </v>
   <v>       0.00000000       0.05555556       0.00000000 </v>
   <v>       0.04166667       0.05555556       0.00000000 </v>
   <v>       0.08333333       0.05555556       0.00000000 </v>
   <v>       0.12500000       0.05555556       0.00000000 </v>
   <v>       0.16666667       0.05555556       0.00000000 </v>
   <v>       0.20833333       0.05555556       0.00000000 </v>
   <v>       0.25000000       0.05555556       0.00000000 </v>
   <v>       0.29166667       0.05555556       0.00000000 </v>
   <v>       0.33333333       0.05555556       0.00000000 </v>
   <v>       0.37500000       0.05555556       0.00000000 </v>
   <v>       0.41666667       0.05555556       0.00000000 </v>
   <v>       0.45833333       0.05555556       0.00000000 </v>
   <v>       0.50000000       0.05555556       0.00000000 </v>
   <v>       0.00000000       0.08333333       0.00000000 </v>
   <v>       0.04166667       0.08333333       0.00000000 </v>
   <v>       0.08333333       0.08333333       0.00000000 </v>
   <v>       0.12500000       0.08333333       0.00000000 </v>
   <v>       0.16666667       0.08333333       0.00000000 </v>
   <v>       0.20833333       0.08333333       0.00000000 </v>
   <v>       0.25000000       0.08333333       0.00000000 </v>
   <v>       0.29166667       0.08333333       0.00000000 </v>
   <v>       0.33333333       0.08333333       0.00000000 </v>
   <v>       0.37500000       0.08333333       0.00000000 </v>
   <v>       0.41666667       0.08333333       0.00000000 </v>
   <v>       0.45833333       0.08333333       0.00000000 </v>
   <v>       0.50000000       0.08333333       0.00000000 </v>
   <v>       0.00000000       0.11111111       0.00000000 </v>
   <v>       0.04166667       0.11111111       0.00000000 </v>
   <v>       0.08333333       0.11111111       0.00000000 </v>
   <v>       0.12500000       0.11111111       0.00000000 </v>
   <v>       0.16666667       0.11111111       0.00000000 </v>
   <v>       0.20833333       0.11111111       0.00000000 </v>
   <v>       0.25000000       0.11111111       0.00000000 </v>
   <v>       0.29166667       0.11111111       0.00000000 </v>
   <v>       0.33333333       0.11111111       0.00000000 </v>
   <v>       0.37500000       0.11111111       0.00000000 </v>
   <v>       0.41666667       0.11111111       0.00000000 </v>
   <v>       0.45833333       0.11111111       0.00000000 </v>
   <v>       0.50000000       0.11111111       0.00000000 </v>
   <v>       0.00000000       0.13888889       0.00000000 </v>
   <v>       0.04166667       0.13888889       0.00000000 </v>
   <v>       0.08333333       0.13888889       0.00000000 </v>
   <v>       0.12500000       0.13888889       0.00000000 </v>
   <v>       0.16666667       0.13888889       0.00000000 </v>
   <v>       0.20833333       0.13888889       0.00000000 </v>
   <v>       0.25000000       0.13888889       0.00000000 </v>
   <v>       0.29166667       0.13888889       0.00000000 </v>
   <v>       0.33333333       0.13888889       0.00000000 </v>
   <v>       0.37500000       0.13888889       0.00000000 </v>
   <v>       0.41666667       0.13888889       0.00000000 </v>
   <v>       0.45833333       0.13888889       0.00000000 </v>
   <v>       0.50000000       0.13888889       0.00000000 </v>
   <v>       0.00000000       0.16666667       0.00000000 </v>
   <v>       0.04166667       0.16666667       0.00000000 </v>
   <v>       0.08333333       0.16666667       0.00000000 </v>
   <v>       0.12500000       0.16666667       0.00000000 </v>
   <v>       0.16666667       0.16666667       0.00000000 </v>
   <v>       0.20833333       0.16666667       0.00000000 </v>
   <v>       0.25000000       0.16666667       0.00000000 </v>
   <v>       0.29166667       0.16666667       0.00000000 </v>
   <v>       0.33333333       0.16666667       0.00000000 </v>
   <v>       0.37500000       0.16666667       0.00000000 </v>
   <v>       0.41666667       0.16666667       0.00000000 </v>
   <v>       0.45833333       0.16666667       0.00000000 </v>
   <v>       0.50000000       0.16666667       0.00000000 </v>
   <v>       0.00000000       0.19444444       0.00000000 </v>
   <v>       0.04166667       0.19444444       0.00000000 </v>
   <v>       0.08333333       0.19444444       0.00000000 </v>
   <v>       0.12500000       0.19444444       0.00000000 </v>
   <v>       0.16666667       0.19444444       0.00000000 </v>
   <v>       0.20833333       0.19444444       0.00000000 </v>
   <v>       0.25000000       0.19444444       0.00000000 </v>
   <v>       0.29166667       0.19444444       0.00000000 </v>
   <v>       0.33333333       0.19444444       0.00000000 </v>
   <v>       0.37500000       0.19444444       0.00000000 </v>
   <v>       0.41666667       0.19444444       0.00000000 </v>
   <v>       0.45833333       0.19444444       0.00000000 </v>
   <v>       0.50000000       0.19444444       0.00000000 </v>
   <v>       0.00000000       0.22222222       0.00000000 </v>
   <v>       0.04166667       0.22222222       0.00000000 </v>
   <v>       0.08333333       0.22222222       0.00000000 </v>
   <v>       0.12500000       0.22222222       0.00000000 </v>
   <v>       0.16666667       0.22222222       0.00000000 </v>
   <v>       0.20833333       0.22222222       0.00000000 </v>
   <v>       0.25000000       0.22222222       0.00000000 </v>
   <v>       0.29166667       0.22222222       0.00000000 </v>
   <v>       0.33333333       0.22222222       0.00000000 </v>
   <v>       0.37500000       0.22222222       0.00000000 </v>
   <v>       0.41666667       0.22222222       0.00000000 </v>
   <v>       0.45833333       0.22222222       0.00000000 </v>
   <v>       0.50000000       0.22222222       0.00000000 </v>
   <v>       0.00000000       0.25000000       0.00000000 </v>
   <v>       0.04166667       0.25000000       0.00000000 </v>
   <v>       0.08333333       0.25000000       0.00000000 </v>
   <v>       0.12500000       0.25000000       0.00000000 </v>
   <v>       0.16666667       0.25000000       0.00000000 </v>
   <v>       0.20833333       0.25000000       0.00000000 </v>
   <v>       0.25000000       0.25000000       0.00000000 </v>
   <v>       0.29166667       0.25000000       0.00000000 </v>
   <v>       0.33333333       0.25000000       0.00000000 </v>
   <v>       0.37500000       0.25000000       0.00000000 </v>
   <v>       0.41666667       0.25000000       0.00000000 </v>
   <v>       0.45833333       0.25000000       0.00000000 </v>
   <v>       0.50000000       0.25000000       0.00000000 </v>
   <v>       0.00000000       0.27777778       0.00000000 </v>
   <v>       0.04166667       0.27777778       0.00000000 </v>
   <v>       0.08333333       0.27777778       0.00000000 </v>
   <v>       0.12500000       0.27777778       0.00000000 </v>
   <v>       0.16666667       0.27777778       0.00000000 </v>
   <v>       0.20833333       0.27777778       0.00000000 </v>
   <v>       0.25000000       0.27777778       0.00000000 </v>
   <v>       0.29166667       0.27777778       0.00000000 </v>
   <v>       0.33333333       0.27777778       0.00000000 </v>
   <v>       0.37500000       0.27777778       0.00000000 </v>
   <v>       0.41666667       0.27777778       0.00000000 </v>
   <v>       0.45833333       0.27777778       0.00000000 </v>
   <v>       0.50000000       0.27777778       0.00000000 </v>
   <v>       0.00000000       0.30555556       0.00000000 </v>
   <v>       0.04166667       0.30555556       0.00000000 </v>
   <v>       0.08333333       0.30555556       0.00000000 </v>
   <v>       0.12500000       0.30555556       0.00000000 </v>
   <v>       0.16666667       0.30555556       0.00000000 </v>
   <v>       0.20833333       0.30555556       0.00000000 </v>
   <v>       0.25000000       0.30555556       0.00000000 </v>
   <v>       0.29166667       0.30555556       0.00000000 </v>
   <v>       0.33333333       0.30555556       0.00000000 </v>
   <v>       0.37500000       0.30555556       0.00000000 </v>
   <v>       0.41666667       0.30555556       0.00000000 </v>
   <v>       0.45833333       0.30555556       0.00000000 </v>
   <v>       0.50000000       0.30555556       0.00000000 </v>
   <v>       0.00000000       0.33333333       0.00000000 </v>
   <v>       0.04166667       0.33333333       0.00000000 </v>
   <v>       0.08333333       0.33333333       0.00000000 </v>
   <v>       0.12500000       0.33333333       0.00000000 </v>
   <v>       0.16666667       0.33333333       0.00000000 </v>
   <v>       0.20833333       0.33333333       0.00000000 </v>
   <v>       0.25000000       0.33333333       0.00000000 </v>
   <v>       0.29166667       0.33333333       0.00000000 </v>
   <v>       0.33333333       0.33333333       0.00000000 </v>
   <v>       0.37500000       0.33333333       0.00000000 </v>
   <v>       0.41666667       0.33333333       0.00000000 </v>
   <v>       0.45833333       0.33333333       0.00000000 </v>
   <v>       0.50000000       0.33333333       0.00000000 </v>
   <v>       0.00000000       0.36111111       0.00000000 </v>
   <v>       0.04166667       0.36111111       0.00000000 </v>
   <v>       0.08333333       0.36111111       0.00000000 </v>
   <v>       0.12500000       0.36111111       0.00000000 </v>
   <v>       0.16666667       0.36111111       0.00000000 </v>
   <v>       0.20833333       0.36111111       0.00000000 </v>
   <v>       0.25000000       0.36111111       0.00000000 </v>
   <v>       0.29166667       0.36111111       0.00000000 </v>
   <v>       0.33333333       0.36111111       0.00000000 </v>
   <v>       0.37500000       0.36111111       0.00000000 </v>
   <v>       0.41666667       0.36111111       0.00000000 </v>
   <v>       0.45833333       0.36111111       0.00000000 </v>
   <v>       0.50000000       0.36111111       0.00000000 </v>
   <v>       0.00000000       0.38888889       0.00000000 </v>
   <v>       0.04166667       0.38888889       0.00000000 </v>
   <v>       0.08333333       0.38888889       0.00000000 </v>
   <v>       0.12500000       0.38888889       0.00000000 </v>
   <v>       0.16666667       0.38888889       0.00000000 </v>
   <v>       0.20833333       0.38888889       0.00000000 </v>
   <v>       0.25000000       0.38888889       0.00000000 </v>
   <v>       0.29166667       0.38888889       0.00000000 </v>
   <v>       0.33333333       0.38888889       0.00000000 </v>
   <v>       0.37500000       0.38888889       0.00000000 </v>
   <v>       0.41666667       0.38888889       0.00000000 </v>
   <v>       0.45833333       0.38888889       0.00000000 </v>
   <v>       0.50000000       0.38888889       0.00000000 </v>
   <v>       0.00000000       0.41666667       0.00000000 </v>
   <v>       0.04166667       0.41666667       0.00000000 </v>
   <v>       0.08333333       0.41666667       0.00000000 </v>
   <v>       0.12500000       0.41666667       0.00000000 </v>
   <v>       0.16666667       0.41666667       0.00000000 </v>
   <v>       0.20833333       0.41666667       0.00000000 </v>
   <v>       0.25000000       0.41666667       0.00000000 </v>
   <v>       0.29166667       0.41666667       0.00000000 </v>
   <v>       0.33333333       0.41666667       0.00000000 </v>
   <v>       0.37500000       0.41666667       0.00000000 </v>
   <v>       0.41666667       0.41666667       0.00000000 </v>
   <v>       0.45833333       0.41666667       0.00000000 </v>
   <v>       0.50000000       0.41666667       0.00000000 </v>
   <v>       0.00000000       0.44444444       0.00000000 </v>
   <v>       0.04166667       0.44444444       0.00000000 </v>
   <v>       0.08333333       0.44444444       0.00000000 </v>
   <v>       0.12500000       0.44444444       0.00000000 </v>
   <v>       0.16666667       0.44444444       0.00000000 </v>
   <v>       0.20833333       0.44444444       0.00000000 </v>
   <v>       0.25000000       0.44444444       0.00000000 </v>
   <v>       0.29166667       0.44444444       0.00000000 </v>
   <v>       0.33333333       0.44444444       0.00000000 </v>
   <v>       0.37500000       0.44444444       0.00000000 </v>
   <v>       0.41666667       0.44444444       0.00000000 </v>
   <v>       0.45833333       0.44444444       0.00000000 </v>
   <v>       0.50000000       0.44444444       0.00000000 </v>
   <v>       0.00000000       0.47222222       0.00000000 </v>
   <v>       0.04166667       0.47222222       0.00000000 </v>
   <v>       0.08333333       0.47222222       0.00000000 </v>
   <v>       0.12500000       0.47222222       0.00000000 </v>
   <v>       0.16666667       0.47222222       0.00000000 </v>
   <v>       0.20833333       0.47222222       0.00000000 </v>
   <v>       0.25000000       0.47222222       0.00000000 </v>
   <v>       0.29166667       0.47222222       0.00000000 </v>
   <v>       0.33333333       0.47222222       0.00000000 </v>
   <v>       0.37500000       0.47222222       0.00000000 </v>
   <v>       0.41666667       0.47222222       0.00000000 </v>
   <v>       0.45833333       0.47222222       0.00000000 </v>
   <v>       0.50000000       0.47222222       0.00000000 </v>
   <v>       0.00000000       0.50000000       0.00000000 </v>
   <v>       0.04166667       0.50000000       0.00000000 </v>
   <v>       0.08333333       0.50000000       0.00000000 </v>
   <v>       0.12500000       0.50000000       0.00000000 </v>
   <v>       0.16666667       0.50000000       0.00000000 </v>
   <v>       0.20833333       0.50000000       0.00000000 </v>
   <v>       0.25000000       0.50000000       0.00000000 </v>
   <v>       0.29166667       0.50000000       0.00000000 </v>
   <v>       0.33333333       0.50000000       0.00000000 </v>
   <v>       0.37500000       0.50000000       0.00000000 </v>
   <v>       0.41666667       0.50000000       0.00000000 </v>
   <v>       0.45833333       0.50000000       0.00000000 </v>
   <v>       0.50000000       0.50000000       0.00000000 </v>
  </varray>
  <varray name="weights" >
   <v>       0.00115741 </v>
   <v>       0.00231481 </v>
   <v>       0.00231481 </v>
   <v>       0.00231481 </v>
   <v>       0.00231481 </v>
   <v>       0.00231481 </v>
   <v>       0.00231481 </v>
   <v>       0.00231481 </v>
   <v>       0.00231481 </v>
   <v>       0.00231481 </v>
   <v>       0.00231481 </v>
   <v>       0.00231481 </v>
   <v>       0.00115741 </v>
   <v>       0.00231481 </v>
   <v>       0.00462963 </v>
   <v>       0.00462963 </v>
   <v>       0.00462963 </v>
   <v>       0.00462963 </v>
   <v>       0.00462963 </v>
   <v>       0.00462963 </v>
   <v>       0.00462963 </v>
   <v>       0.00462963 </v>
   <v>       0.00462963 </v>
   <v>       0.00462963 </v>
   <v>       0.00462963 </v>
   <v>       0.00231481 </v>
   <v>       0.00231481 </v>
   <v>       0.00462963 </v>
   <v>       0.00462963 </v>
   <v>       0.00462963 </v>
   <v>       0.00462963 </v>
   <v>       0.00462963 </v>
   <v>       0.00462963 </v>
   <v>       0.00462963 </v>
   <v>       0.00462963 </v>
   <v>       0.00462963 </v>
   <v>       0.00462963 </v>
   <v>       0.00462963 </v>
   <v>       0.00231481 </v>
   <v>       0.00231481 </v>
   <v>       0.00462963 </v>
   <v>       0.00462963 </v>
   <v>       0.00462963 </v>
   <v>       0.00462963 </v>
   <v>       0.00462963 </v>
   <v>       0.00462963 </v>
   <v>       0.00462963 </v>
   <v>       0.00462963 </v>
   <v>       0.00462963 </v>
   <v>       0.00462963 </v>
   <v>       0.00462963 </v>
   <v>       0.00231481 </v>
   <v>       0.00231481 </v>
   <v>       0.00462963 </v>
   <v>       0.00462963 </v>
   <v>       0.00462963 </v>
   <v>       0.00462963 </v>
   <v>       0.00462963 </v>
   <v>       0.00462963 </v>
   <v>       0.00462963 </v>
   <v>       0.00462963 </v>
   <v>       0.00462963 </v>
   <v>       0.00462963 </v>
   <v>       0.00462963 </v>
   <v>       0.00231481 </v>
   <v>       0.00231481 </v>
   <v>       0.00462963 </v>
   <v>       0.00462963 </v>
   <v>       0.00462963 </v>
   <v>       0.00462963 </v>
   <v>       0.00462963 </v>
   <v>       0.00462963 </v>
   <v>       0.00462963 </v>
   <v>       0.00462963 </v>
   <v>       0.00462963 </v>
   <v>       0.00462963 </v>
   <v>       0.00462963 </v>
   <v>       0.00231481 </v>
   <v>       0.00231481 </v>
   <v>       0.00462963 </v>
   <v>       0.00462963 </v>
   <v>       0.00462963 </v>
   <v>       0.00462963 </v>
   <v>       0.00462963 </v>
   <v>       0.00462963 </v>
   <v>       0.00462963 </v>
   <v>       0.00462963 </v>
   <v>       0.00462963 </v>
   <v>       0.00462963 </v>
   <v>       0.00462963 </v>
   <v>       0.00231481 </v>
   <v>       0.00231481 </v>
   <v>       0.00462963 </v>
   <v>       0.00462963 </v>
   <v>       0.00462963 </v>
   <v>       0.00462963 </v>
   <v>       0.00462963 </v>
   <v>       0.00462963 </v>
   <v>       0.00462963 </v>
   <v>       0.00462963 </v>
   <v>       0.00462963 </v>
   <v>       0.00462963 </v>
   <v>       0.00462963 </v>
   <v>       0.00231481 </v>
   <v>       0.00231481 </v>
   <v>       0.00462963 </v>
   <v>       0.00462963 </v>
   <v>       0.00462963 </v>
   <v>       0.00462963 </v>
   <v>       0.00462963 </v>
   <v>       0.00462963 </v>
   <v>       0.00462963 </v>
   <v>       0.00462963 </v>
   <v>       0.00462963 </v>
   <v>       0.00462963 </v>
   <v>       0.00462963 </v>
   <v>       0.00231481 </v>
   <v>       0.00231481 </v>
   <v>       0.00462963 </v>
   <v>       0.00462963 </v>
   <v>       0.00462963 </v>
   <v>       0.00462963 </v>
   <v>       0.00462963 </v>
   <v>       0.00462963 </v>
   <v>       0.00462963 </v>
   <v>       0.00462963 </v>
   <v>       0.00462963 </v>
   <v>       0.00462963 </v>
   <v>       0.00462963 </v>
   <v>       0.00231481 </v>
   <v>       0.00231481 </v>
   <v>       0.00462963 </v>
   <v>       0.00462963 </v>
   <v>       0.00462963 </v>
   <v>       0.00462963 </v>
   <v>       0.00462963 </v>
   <v>       0.00462963 </v>
   <v>       0.00462963 </v>
   <v>       0.00462963 </v>
   <v>       0.00462963 </v>
   <v>       0.00462963 </v>
   <v>       0.00462963 </v>
   <v>       0.00231481 </v>
   <v>       0.00231481 </v>
   <v>       0.00462963 </v>
   <v>       0.00462963 </v>
   <v>       0.00462963 </v>
   <v>       0.00462963 </v>
   <v>       0.00462963 </v>
   <v>       0.00462963 </v>
   <v>       0.00462963 </v>
   <v>       0.00462963 </v>
   <v>       0.00462963 </v>
   <v>       0.00462963 </v>
   <v>       0.00462963 </v>
   <v>       0.00231481 </v>
   <v>       0.00231481 </v>
   <v>       0.00462963 </v>
   <v>       0.00462963 </v>
   <v>       0.00462963 </v>
   <v>       0.00462963 </v>
   <v>       0.00462963 </v>
   <v>       0.00462963 </v>
   <v>       0.00462963 </v>
   <v>       0.00462963 </v>
   <v>       0.00462963 </v>
   <v>       0.00462963 </v>
   <v>       0.00462963 </v>
   <v>       0.00231481 </v>
   <v>       0.00231481 </v>
   <v>       0.00462963 </v>
   <v>       0.00462963 </v>
   <v>       0.00462963 </v>
   <v>       0.00462963 </v>
   <v>       0.00462963 </v>
   <v>       0.00462963 </v>
   <v>       0.00462963 </v>
   <v>       0.00462963 </v>
   <v>       0.00462963 </v>
   <v>       0.00462963 </v>
   <v>       0.00462963 </v>
   <v>       0.00231481 </v>
   <v>       0.00231481 </v>
   <v>       0.00462963 </v>
   <v>       0.00462963 </v>
   <v>       0.00462963 </v>
   <v>       0.00462963 </v>
   <v>       0.00462963 </v>
   <v>       0.00462963 </v>
   <v>       0.00462963 </v>
   <v>       0.00462963 </v>
   <v>       0.00462963 </v>
   <v>       0.00462963 </v>
   <v>       0.00462963 </v>
   <v>       0.00231481 </v>
   <v>       0.00231481 </v>
   <v>       0.00462963 </v>
   <v>       0.00462963 </v>
   <v>       0.00462963 </v>
   <v>       0.00462963 </v>
   <v>       0.00462963 </v>
   <v>       0.00462963 </v>
   <v>       0.00462963 </v>
   <v>       0.00462963 </v>
   <v>       0.00462963 </v>
   <v>       0.00462963 </v>
   <v>       0.00462963 </v>
   <v>       0.00231481 </v>
   <v>       0.00231481 </v>
   <v>       0.00462963 </v>
   <v>       0.00462963 </v>
   <v>       0.00462963 </v>
   <v>       0.00462963 </v>
   <v>       0.00462963 </v>
   <v>       0.00462963 </v>
   <v>       0.00462963 </v>
   <v>       0.00462963 </v>
   <v>       0.00462963 </v>
   <v>       0.00462963 </v>
   <v>       0.00462963 </v>
   <v>       0.00231481 </v>
   <v>       0.00231481 </v>
   <v>       0.00462963 </v>
   <v>       0.00462963 </v>
   <v>       0.00462963 </v>
   <v>       0.00462963 </v>
   <v>       0.00462963 </v>
   <v>       0.00462963 </v>
   <v>       0.00462963 </v>
   <v>       0.00462963 </v>
   <v>       0.00462963 </v>
   <v>       0.00462963 </v>
   <v>       0.00462963 </v>
   <v>       0.00231481 </v>
   <v>       0.00115741 </v>
   <v>       0.00231481 </v>
   <v>       0.00231481 </v>
   <v>       0.00231481 </v>
   <v>       0.00231481 </v>
   <v>       0.00231481 </v>
   <v>       0.00231481 </v>
   <v>       0.00231481 </v>
   <v>       0.00231481 </v>
   <v>       0.00231481 </v>
   <v>       0.00231481 </v>
   <v>       0.00231481 </v>
   <v>       0.00115741 </v>
  </varray>
 </kpoints>
 <parameters>
  <separator name="general" >
   <i type="string" name="SYSTEM">gr</i>
   <i type="logical" name="LCOMPAT"> F  </i>
  </separator>
  <separator name="electronic" >
   <i type="string" name="PREC">accura</i>
   <i name="ENMAX">   2000.00000000</i>
   <i name="ENAUG">    644.87300000</i>
   <i name="EDIFF">      0.00000000</i>
   <i type="int" name="IALGO">    68</i>
   <i type="int" name="IWAVPR">    11</i>
   <i type="int" name="NBANDS">    12</i>
   <i name="NELECT">     16.00000000</i>
   <i type="int" name="TURBO">     0</i>
   <i type="int" name="IRESTART">     0</i>
   <i type="int" name="NREBOOT">     0</i>
   <i type="int" name="NMIN">     0</i>
   <i name="EREF">      0.00000000</i>
   <separator name="electronic smearing" >
    <i type="int" name="ISMEAR">     0</i>
    <i name="SIGMA">      0.05000000</i>
    <i name="KSPACING">      0.50000000</i>
    <i type="logical" name="KGAMMA"> T  </i>
   </separator>
   <separator name="electronic projectors" >
    <i type="logical" name="LREAL"> F  </i>
    <v name="ROPT">      0.00000000</v>
    <i type="int" name="LMAXPAW">  -100</i>
    <i type="int" name="LMAXMIX">     2</i>
    <i type="logical" name="NLSPLINE"> F  </i>
   </separator>
   <separator name="electronic startup" >
    <i type="int" name="ISTART">     0</i>
    <i type="int" name="ICHARG">     2</i>
    <i type="int" name="INIWAV">     1</i>
   </separator>
   <separator name="electronic spin" >
    <i type="int" name="ISPIN">     1</i>
    <i type="logical" name="LNONCOLLINEAR"> F  </i>
    <v name="MAGMOM">      1.00000000      1.00000000      1.00000000      1.00000000</v>
    <i name="NUPDOWN">     -1.00000000</i>
    <i type="logical" name="LSORBIT"> F  </i>
    <v name="SAXIS">      0.00000000      0.00000000      1.00000000</v>
    <i type="logical" name="LSPIRAL"> F  </i>
    <v name="QSPIRAL">      0.00000000      0.00000000      0.00000000</v>
    <i type="logical" name="LZEROZ"> F  </i>
   </separator>
   <separator name="electronic exchange-correlation" >
    <i type="logical" name="LASPH"> F  </i>
    <i type="logical" name="LMETAGGA"> F  </i>
   </separator>
   <separator name="electronic convergence" >
    <i type="int" name="NELM">   100</i>
    <i type="int" name="NELMDL">    -3</i>
    <i type="int" name="NELMIN">     5</i>
    <i name="ENINI">   2000.00000000</i>
    <separator name="electronic convergence detail" >
     <i type="logical" name="LDIAG"> T  </i>
     <i type="logical" name="LSUBROT"> F  </i>
     <i name="WEIMIN">      0.00100000</i>
     <i name="EBREAK">      0.00000000</i>
     <i name="DEPER">      0.30000000</i>
     <i type="int" name="NRMM">     4</i>
     <i name="TIME">      0.40000000</i>
    </separator>
   </separator>
   <separator name="electronic mixer" >
    <i name="AMIX">      0.40000000</i>
    <i name="BMIX">      1.00000000</i>
    <i name="AMIN">      0.10000000</i>
    <i name="AMIX_MAG">      1.60000000</i>
    <i name="BMIX_MAG">      1.00000000</i>
    <separator name="electronic mixer details" >
     <i type="int" name="IMIX">     4</i>
     <i type="int" name="MAXMIX">   -45</i>
     <i name="WC">    100.00000000</i>
     <i type="int" name="INIMIX">     1</i>
     <i type="int" name="MIXPRE">     1</i>
     <i type="int" name="MREMOVE">     5</i>
    </separator>
   </separator>
   <separator name="electronic dipolcorrection" >
    <i type="logical" name="LDIPOL"> F  </i>
    <i type="logical" name="LMONO"> F  </i>
    <i type="int" name="IDIPOL">     0</i>
    <i name="EPSILON">      1.00000000</i>
    <v name="DIPOL">   -100.00000000   -100.00000000   -100.00000000</v>
    <i name="EFIELD">      0.00000000</i>
   </separator>
  </separator>
  <separator name="grids" >
   <i type="int" name="NGX">    64</i>
   <i type="int" name="NGY">    36</i>
   <i type="int" name="NGZ">   288</i>
   <i type="int" name="NGXF">   128</i>
   <i type="int" name="NGYF">    72</i>
   <i type="int" name="NGZF">   576</i>
   <i type="logical" name="ADDGRID"> F  </i>
  </separator>
  <separator name="ionic" >
   <i type="int" name="NSW">   400</i>
   <i type="int" name="IBRION">     1</i>
   <i type="int" name="ISIF">     2</i>
   <i name="PSTRESS">      0.00000000</i>
   <i name="EDIFFG">     -0.00000100</i>
   <i type="int" name="NFREE">     0</i>
   <i name="POTIM">      0.50000000</i>
   <i name="SMASS">     -3.00000000</i>
   <i name="SCALEE">      1.00000000</i>
  </separator>
  <separator name="ionic md" >
   <i name="TEBEG">      0.00010000</i>
   <i name="TEEND">      0.00010000</i>
   <i type="int" name="NBLOCK">     1</i>
   <i type="int" name="KBLOCK">   400</i>
   <i type="int" name="NPACO">   256</i>
   <i name="APACO">     16.00000000</i>
  </separator>
  <separator name="symmetry" >
   <i type="int" name="ISYM">     2</i>
   <i name="SYMPREC">      0.00001000</i>
  </separator>
  <separator name="dos" >
   <i type="logical" name="LORBIT"> F  </i>
   <v name="RWIGS">     -1.00000000</v>
   <i type="int" name="NEDOS">   301</i>
   <i name="EMIN">     10.00000000</i>
   <i name="EMAX">    -10.00000000</i>
   <i name="EFERMI">      0.00000000</i>
  </separator>
  <separator name="writing" >
   <i type="int" name="NWRITE">     2</i>
   <i type="logical" name="LWAVE"> F  </i>
   <i type="logical" name="LCHARG"> F  </i>
   <i type="logical" name="LPARD"> F  </i>
   <i type="logical" name="LVTOT"> F  </i>
   <i type="logical" name="LVHAR"> F  </i>
   <i type="logical" name="LELF"> F  </i>
   <i type="logical" name="LOPTICS"> F  </i>
   <v name="STM">      0.00000000      0.00000000      0.00000000      0.00000000      0.00000000      0.00000000      0.00000000</v>
  </separator>
  <separator name="performance" >
   <i type="int" name="NPAR">     4</i>
   <i type="int" name="NSIM">     4</i>
   <i type="int" name="NBLK">    -1</i>
   <i type="logical" name="LPLANE"> T  </i>
   <i type="logical" name="LSCALAPACK"> F  </i>
   <i type="logical" name="LSCAAWARE"> F  </i>
   <i type="logical" name="LSCALU"> F  </i>
   <i type="logical" name="LASYNC"> F  </i>
   <i type="logical" name="LORBITALREAL"> F  </i>
  </separator>
  <separator name="miscellaneous" >
   <i type="int" name="IDIOT">     3</i>
   <i type="logical" name="LMUSIC"> F  </i>
   <v name="POMASS">     12.01100000</v>
   <v name="DARWINR">      0.00000000</v>
   <v name="DARWINV">      1.00000000</v>
   <i type="logical" name="LCORR"> T  </i>
  </separator>
  <i type="logical" name="GGA_COMPAT"> T  </i>
  <i type="logical" name="LBERRY"> F  </i>
  <i type="int" name="ICORELEVEL">     0</i>
  <i type="logical" name="LDAU"> F  </i>
  <i type="int" name="I_CONSTRAINED_M">     0</i>
  <separator name="electronic exchange-correlation" >
   <i type="string" name="GGA">--</i>
   <i type="int" name="VOSKOWN">     0</i>
   <i type="logical" name="LHFCALC"> F  </i>
   <i type="string" name="PRECFOCK"></i>
   <i type="logical" name="LSYMGRAD"> F  </i>
   <i type="logical" name="LHFONE"> F  </i>
   <i type="logical" name="LRHFCALC"> F  </i>
   <i type="logical" name="LTHOMAS"> F  </i>
   <i type="logical" name="LMODELHF"> F  </i>
   <i name="ENCUT4O">     -1.00000000</i>
   <i type="int" name="EXXOEP">     0</i>
   <i type="int" name="FOURORBIT">     0</i>
   <i name="AEXX">      0.00000000</i>
   <i name="HFALPHA">      0.00000000</i>
   <i name="MCALPHA">      0.00000000</i>
   <i name="ALDAX">      1.00000000</i>
   <i name="AGGAX">      1.00000000</i>
   <i name="ALDAC">      1.00000000</i>
   <i name="AGGAC">      1.00000000</i>
   <i type="int" name="NKREDX">     1</i>
   <i type="int" name="NKREDY">     1</i>
   <i type="int" name="NKREDZ">     1</i>
   <i type="logical" name="SHIFTRED"> F  </i>
   <i type="logical" name="ODDONLY"> F  </i>
   <i type="logical" name="EVENONLY"> F  </i>
   <i type="int" name="LMAXFOCK">     0</i>
   <i type="int" name="NMAXFOCKAE">     0</i>
   <i type="logical" name="LFOCKAEDFT"> F  </i>
   <i name="HFSCREEN">      0.00000000</i>
   <i name="HFSCREENC">      0.00000000</i>
   <i type="int" name="NBANDSGWLOW">     0</i>
  </separator>
  <separator name="vdW DFT" >
   <i type="logical" name="LUSE_VDW"> F  </i>
   <i name="Zab_VDW">     -0.84910000</i>
   <i name="PARAM1">      0.12340000</i>
   <i name="PARAM2">      1.00000000</i>
   <i name="PARAM3">      0.00000000</i>
  </separator>
  <separator name="model GW" >
   <i type="int" name="MODEL_GW">     0</i>
   <i name="MODEL_EPS0">     31.62568521</i>
   <i name="MODEL_ALPHA">      1.00000000</i>
  </separator>
  <separator name="linear response parameters" >
   <i type="logical" name="LEPSILON"> F  </i>
   <i type="logical" name="LRPA"> F  </i>
   <i type="logical" name="LNABLA"> F  </i>
   <i type="logical" name="LVEL"> F  </i>
   <i type="int" name="KINTER">     0</i>
   <i name="CSHIFT">      0.10000000</i>
   <i name="OMEGAMAX">     -1.00000000</i>
   <i name="DEG_THRESHOLD">      0.00200000</i>
  </separator>
  <separator name="orbital magnetization" >
   <i type="logical" name="NUCIND"> F  </i>
   <v name="MAGPOS">      0.00000000      0.00000000      0.00000000</v>
   <i type="logical" name="LNICSALL"> T  </i>
   <i type="logical" name="ORBITALMAG"> F  </i>
   <i type="logical" name="LMAGBLOCH"> F  </i>
   <i type="logical" name="LCHIMAG"> F  </i>
   <i type="logical" name="LGAUGE"> T  </i>
   <i type="int" name="MAGATOM">     0</i>
   <v name="MAGDIPOL">      0.00000000      0.00000000      0.00000000</v>
   <v name="AVECCONST">      0.00000000      0.00000000      0.00000000</v>
  </separator>
  <separator name="response functions" >
   <i type="logical" name="LADDER"> F  </i>
   <i type="logical" name="LFXC"> F  </i>
   <i type="logical" name="LHARTREE"> T  </i>
   <i type="int" name="IBSE">     0</i>
   <i type="logical" name="LTCTE"> F  </i>
   <i type="logical" name="LTETE"> F  </i>
   <i type="logical" name="LTRIPLET"> F  </i>
   <i type="logical" name="LFXCEPS"> F  </i>
   <i type="logical" name="LFXHEG"> F  </i>
   <i type="logical" name="L2ORDER"> F  </i>
   <i type="logical" name="LUSEW"> F  </i>
   <i name="ENCUTGW">     -2.00000000</i>
   <i name="ENCUTGWSOFT">     -2.00000000</i>
   <i name="ENCUTLF">     -1.00000000</i>
   <i type="int" name="LMAXMP2">    -1</i>
   <i name="SCISSOR">      0.00000000</i>
   <i type="int" name="NOMEGA">     0</i>
   <i type="int" name="NOMEGAR">     0</i>
   <i type="int" name="NBANDSGW">    -1</i>
   <i type="int" name="NBANDSO">    -1</i>
   <i type="int" name="NBANDSV">    -1</i>
   <i type="int" name="NELM">   100</i>
   <i type="int" name="DIM">     3</i>
   <i type="int" name="ANTIRES">     0</i>
   <i name="OMEGAMAX">    -30.00000000</i>
   <i name="OMEGAMIN">    -30.00000000</i>
   <i name="OMEGATL">   -200.00000000</i>
   <i type="int" name="OMEGAGRID">     0</i>
   <i name="CSHIFT">     -0.10000000</i>
   <i type="logical" name="SELFENERGY"> F  </i>
   <i type="logical" name="LSPECTRAL"> F  </i>
   <i type="logical" name="ODDONLYGW"> F  </i>
   <i type="logical" name="EVENONLYGW"> F  </i>
   <i type="int" name="NKREDLFX">     1</i>
   <i type="int" name="NKREDLFY">     1</i>
   <i type="int" name="NKREDLFZ">     1</i>
   <i type="int" name="MAXMEM">  1800</i>
   <i type="int" name="TELESCOPE">     0</i>
   <i type="int" name="TAUPAR">     1</i>
  </separator>
  <separator name="External order field" >
   <i name="OFIELD_KAPPA">      0.00000000</i>
   <v name="OFIELD_K">      0.00000000      0.00000000      0.00000000</v>
   <i name="OFIELD_Q6_NEAR">      0.00000000</i>
   <i name="OFIELD_Q6_FAR">      0.00000000</i>
   <i name="OFIELD_A">      0.00000000</i>
  </separator>
 </parameters>
 <atominfo>
  <atoms>       4 </atoms>
  <types>       1 </types>
  <array name="atoms" >
   <dimension dim="1">ion</dimension>
   <field type="string">element</field>
   <field type="int">atomtype</field>
   <set>
    <rc><c>C </c><c>   1</c></rc>
    <rc><c>C </c><c>   1</c></rc>
    <rc><c>C </c><c>   1</c></rc>
    <rc><c>C </c><c>   1</c></rc>
   </set>
  </array>
  <array name="atomtypes" >
   <dimension dim="1">type</dimension>
   <field type="int">atomspertype</field>
   <field type="string">element</field>
   <field>mass</field>
   <field>valence</field>
   <field type="string">pseudopotential</field>
   <set>
    <rc><c>   4</c><c>C </c><c>     12.01100000</c><c>      4.00000000</c><c> PAW_PBE C 08Apr2002                    </c></rc>
   </set>
  </array>
 </atominfo>
 <structure name="initialpos" >
  <crystal>
   <varray name="basis" >
    <v>       4.40189274       0.00000000       0.00000000 </v>
    <v>       0.00000000       2.45540051       0.00000000 </v>
    <v>       0.00000000       0.00000000      19.50683843 </v>
   </varray>
   <i name="volume">    210.83790140 </i>
   <varray name="rec_basis" >
    <v>       0.22717500       0.00000000       0.00000000 </v>
    <v>       0.00000000       0.40726553       0.00000000 </v>
    <v>       0.00000000       0.00000000       0.05126407 </v>
   </varray>
  </crystal>
  <varray name="positions" >
   <v>       0.99938979       0.00000000       0.00000000 </v>
   <v>       0.16727688       0.50000000       0.00000000 </v>
   <v>       0.49938979       0.50000000       0.00000000 </v>
   <v>       0.66727688       0.00000000       0.00000000 </v>
  </varray>
 </structure>
 <calculation>
  <scstep>
   <time name="dav">  293.03  293.26</time>
   <time name="total">  295.50  295.81</time>
   <energy>
    <i name="alphaZ">      6.18334092 </i>
    <i name="ewald">   2421.84154838 </i>
    <i name="hartreedc">  -2852.16189225 </i>
    <i name="XCdc">     54.75970831 </i>
    <i name="pawpsdc">    151.32577238 </i>
    <i name="pawaedc">   -155.92769107 </i>
    <i name="eentropy">     -0.00136734 </i>
    <i name="bandstr">    -27.29373319 </i>
    <i name="atom">    588.62352690 </i>
    <i name="e_fr_energy">    187.34921305 </i>
    <i name="e_wo_entrp">    187.35058039 </i>
    <i name="e_0_energy">    187.34989672 </i>
   </energy>
  </scstep>
  <scstep>
   <time name="dav">  444.94  445.15</time>
   <time name="total">  444.95  445.16</time>
   <energy>
    <i name="e_fr_energy">     -9.23800967 </i>
    <i name="e_wo_entrp">     -9.23762913 </i>
    <i name="e_0_energy">     -9.23781940 </i>
   </energy>
  </scstep>
  <scstep>
   <time name="dav">  340.99  341.12</time>
   <time name="total">  369.95  370.21</time>
   <energy>
    <i name="e_fr_energy">    -38.01942764 </i>
    <i name="e_wo_entrp">    -38.01942763 </i>
    <i name="e_0_energy">    -38.01942763 </i>
   </energy>
  </scstep>
  <scstep>
   <time name="diag">   78.38   78.39</time>
   <time name="diis">  318.68  318.73</time>
   <time name="orth">    3.08    3.08</time>
   <time name="total">  431.65  432.06</time>
   <energy>
    <i name="e_fr_energy">    -37.53049261 </i>
    <i name="e_wo_entrp">    -37.53049261 </i>
    <i name="e_0_energy">    -37.53049261 </i>
   </energy>
  </scstep>
  <scstep>
   <time name="diag">   78.50   78.51</time>
   <time name="diis">  320.11  320.16</time>
   <time name="orth">    3.10    3.10</time>
   <time name="total">  432.97  433.05</time>
   <energy>
    <i name="e_fr_energy">    -36.83731440 </i>
    <i name="e_wo_entrp">    -36.83731440 </i>
    <i name="e_0_energy">    -36.83731440 </i>
   </energy>
  </scstep>
  <scstep>
   <time name="diag">   78.47   78.48</time>
   <time name="diis">  347.13  348.38</time>
   <time name="orth">    3.08    3.08</time>
   <time name="total">  459.71  461.15</time>
   <energy>
    <i name="e_fr_energy">    -36.83934382 </i>
    <i name="e_wo_entrp">    -36.83934382 </i>
    <i name="e_0_energy">    -36.83934382 </i>
   </energy>
  </scstep>
  <scstep>
   <time name="diag">   78.10   78.48</time>
   <time name="diis">  318.60  320.19</time>
   <time name="orth">    3.09    3.11</time>
   <time name="total">  431.25  433.42</time>
   <energy>
    <i name="e_fr_energy">    -36.83064886 </i>
    <i name="e_wo_entrp">    -36.83064886 </i>
    <i name="e_0_energy">    -36.83064886 </i>
   </energy>
  </scstep>
  <scstep>
   <time name="diag">   78.41   78.42</time>
   <time name="diis">  319.99  320.11</time>
   <time name="orth">    3.08    3.08</time>
   <time name="total">  432.07  436.26</time>
   <energy>
    <i name="e_fr_energy">    -36.82610824 </i>
    <i name="e_wo_entrp">    -36.82610824 </i>
    <i name="e_0_energy">    -36.82610824 </i>
   </energy>
  </scstep>
  <scstep>
   <time name="diag">   78.36   78.46</time>
   <time name="diis">  316.88  317.05</time>
   <time name="orth">    3.08    3.08</time>
   <time name="total">  429.52  429.83</time>
   <energy>
    <i name="e_fr_energy">    -36.82584674 </i>
    <i name="e_wo_entrp">    -36.82584674 </i>
    <i name="e_0_energy">    -36.82584674 </i>
   </energy>
  </scstep>
  <scstep>
   <time name="diag">   78.36   78.45</time>
   <time name="diis">  316.14  317.84</time>
   <time name="orth">    3.08    3.08</time>
   <time name="total">  428.99  430.86</time>
   <energy>
    <i name="e_fr_energy">    -36.82582521 </i>
    <i name="e_wo_entrp">    -36.82582521 </i>
    <i name="e_0_energy">    -36.82582521 </i>
   </energy>
  </scstep>
  <scstep>
   <time name="diag">   78.41   78.42</time>
   <time name="diis">  318.07  319.41</time>
   <time name="orth">    3.08    3.10</time>
   <time name="total">  430.16  432.32</time>
   <energy>
    <i name="e_fr_energy">    -36.82799106 </i>
    <i name="e_wo_entrp">    -36.82799106 </i>
    <i name="e_0_energy">    -36.82799106 </i>
   </energy>
  </scstep>
  <scstep>
   <time name="diag">   78.39   78.53</time>
   <time name="diis">  319.85  319.90</time>
   <time name="orth">    3.08    3.08</time>
   <time name="total">  433.17  433.39</time>
   <energy>
    <i name="e_fr_energy">    -36.82853312 </i>
    <i name="e_wo_entrp">    -36.82853312 </i>
    <i name="e_0_energy">    -36.82853312 </i>
   </energy>
  </scstep>
  <scstep>
   <time name="diag">   78.46   78.47</time>
   <time name="diis">  327.86  327.92</time>
   <time name="orth">    3.10    3.10</time>
   <time name="total">  440.56  440.69</time>
   <energy>
    <i name="e_fr_energy">    -36.82877607 </i>
    <i name="e_wo_entrp">    -36.82877607 </i>
    <i name="e_0_energy">    -36.82877607 </i>
   </energy>
  </scstep>
  <scstep>
   <time name="diag">   78.32   78.53</time>
   <time name="diis">  323.78  323.84</time>
   <time name="orth">    3.10    3.10</time>
   <time name="total">  436.54  436.88</time>
   <energy>
    <i name="e_fr_energy">    -36.82885902 </i>
    <i name="e_wo_entrp">    -36.82885902 </i>
    <i name="e_0_energy">    -36.82885902 </i>
   </energy>
  </scstep>
  <scstep>
   <time name="diag">   78.43   78.44</time>
   <time name="diis">  317.58  317.64</time>
   <time name="orth">    3.10    3.10</time>
   <time name="total">  429.99  430.18</time>
   <energy>
    <i name="e_fr_energy">    -36.82887218 </i>
    <i name="e_wo_entrp">    -36.82887218 </i>
    <i name="e_0_energy">    -36.82887218 </i>
   </energy>
  </scstep>
  <scstep>
   <time name="diag">   78.47   78.48</time>
   <time name="diis">  316.91  316.98</time>
   <time name="orth">    3.11    3.11</time>
   <time name="total">  430.45  430.56</time>
   <energy>
    <i name="e_fr_energy">    -36.82888581 </i>
    <i name="e_wo_entrp">    -36.82888581 </i>
    <i name="e_0_energy">    -36.82888581 </i>
   </energy>
  </scstep>
  <scstep>
   <time name="diag">   78.44   78.47</time>
   <time name="diis">  317.20  317.25</time>
   <time name="orth">    3.08    3.08</time>
   <time name="total">  430.41  430.52</time>
   <energy>
    <i name="e_fr_energy">    -36.82889191 </i>
    <i name="e_wo_entrp">    -36.82889191 </i>
    <i name="e_0_energy">    -36.82889191 </i>
   </energy>
  </scstep>
  <scstep>
   <time name="diag">   78.48   78.51</time>
   <time name="diis">  321.53  321.67</time>
   <time name="orth">    3.08    3.08</time>
   <time name="total">  434.36  434.58</time>
   <energy>
    <i name="e_fr_energy">    -36.82889292 </i>
    <i name="e_wo_entrp">    -36.82889292 </i>
    <i name="e_0_energy">    -36.82889292 </i>
   </energy>
  </scstep>
  <scstep>
   <time name="diag">   78.46   78.47</time>
   <time name="diis">  287.04  287.32</time>
   <time name="orth">    3.07    3.07</time>
   <time name="total">  399.71  400.18</time>
   <energy>
    <i name="e_fr_energy">    -36.82889362 </i>
    <i name="e_wo_entrp">    -36.82889362 </i>
    <i name="e_0_energy">    -36.82889362 </i>
   </energy>
  </scstep>
  <scstep>
   <time name="diag">   78.04   78.41</time>
   <time name="diis">  247.73  247.96</time>
   <time name="orth">    3.07    3.08</time>
   <time name="total">  360.75  361.37</time>
   <energy>
    <i name="e_fr_energy">    -36.82889365 </i>
    <i name="e_wo_entrp">    -36.82889365 </i>
    <i name="e_0_energy">    -36.82889365 </i>
   </energy>
  </scstep>
  <scstep>
   <time name="diag">   78.29   78.47</time>
   <time name="diis">  233.94  235.00</time>
   <time name="orth">    3.10    3.10</time>
   <time name="total">  346.47  347.85</time>
   <energy>
    <i name="e_fr_energy">    -36.82889366 </i>
    <i name="e_wo_entrp">    -36.82889366 </i>
    <i name="e_0_energy">    -36.82889366 </i>
   </energy>
  </scstep>
  <scstep>
   <time name="diag">   78.02   78.50</time>
   <time name="diis">  213.85  216.20</time>
   <time name="orth">    3.09    3.10</time>
   <time name="total">  297.36  300.23</time>
   <energy>
    <i name="alphaZ">      6.18334092 </i>
    <i name="ewald">   2421.84154838 </i>
    <i name="hartreedc">  -2916.19383644 </i>
    <i name="XCdc">     57.06371566 </i>
    <i name="pawpsdc">    267.16774858 </i>
    <i name="pawaedc">   -272.27183580 </i>
    <i name="eentropy">     -0.00000000 </i>
    <i name="bandstr">   -189.24310186 </i>
    <i name="atom">    588.62352690 </i>
    <i name="e_fr_energy">    -36.82889366 </i>
    <i name="e_wo_entrp">    -36.82889366 </i>
    <i name="e_0_energy">    -36.82889366 </i>
   </energy>
  </scstep>
  <structure>
   <crystal>
    <varray name="basis" >
     <v>       4.40189274       0.00000000       0.00000000 </v>
     <v>       0.00000000       2.45540051       0.00000000 </v>
     <v>       0.00000000       0.00000000      19.50683843 </v>
    </varray>
    <i name="volume">    210.83790140 </i>
    <varray name="rec_basis" >
     <v>       0.22717500       0.00000000       0.00000000 </v>
     <v>       0.00000000       0.40726553       0.00000000 </v>
     <v>       0.00000000       0.00000000       0.05126407 </v>
    </varray>
   </crystal>
   <varray name="positions" >
    <v>       0.99938979       0.00000000       0.00000000 </v>
    <v>       0.16727688       0.50000000       0.00000000 </v>
    <v>       0.49938979       0.50000000       0.00000000 </v>
    <v>       0.66727688       0.00000000       0.00000000 </v>
   </varray>
  </structure>
  <varray name="forces" >
   <v>      -0.00000469      -0.00000000       0.00000000 </v>
   <v>       0.00000469       0.00000000       0.00000000 </v>
   <v>      -0.00000469       0.00000000       0.00000000 </v>
   <v>       0.00000469      -0.00000000       0.00000000 </v>
  </varray>
  <varray name="stress" >
   <v>     -49.20791422       0.00000000       0.00000000 </v>
   <v>       0.00000000      -0.00132999       0.00000000 </v>
   <v>       0.00000000       0.00000000      -0.01033286 </v>
  </varray>
  <energy>
   <i name="e_fr_energy">    -36.82889366 </i>
   <i name="e_wo_entrp">    -36.82889366 </i>
   <i name="e_0_energy">     -0.00000000 </i>
  </energy>
  <time name="totalsc"> 9126.54 9147.48</time>
 </calculation>
 <calculation>
  <scstep>
   <time name="dav">  308.68  310.56</time>
   <time name="total">  339.49  341.66</time>
   <energy>
    <i name="alphaZ">      6.18334092 </i>
    <i name="ewald">   2421.84154257 </i>
    <i name="hartreedc">  -2916.19381808 </i>
    <i name="XCdc">     57.06371481 </i>
    <i name="pawpsdc">    267.16774402 </i>
    <i name="pawaedc">   -272.27183099 </i>
    <i name="eentropy">     -0.00000000 </i>
    <i name="bandstr">   -189.24311381 </i>
    <i name="atom">    588.62352690 </i>
    <i name="e_fr_energy">    -36.82889366 </i>
    <i name="e_wo_entrp">    -36.82889366 </i>
    <i name="e_0_energy">    -36.82889366 </i>
   </energy>
  </scstep>
  <scstep>
   <time name="diag">   77.63   78.42</time>
   <time name="diis">  199.58  201.16</time>
   <time name="orth">    3.08    3.08</time>
   <time name="total">  310.91  313.39</time>
   <energy>
    <i name="e_fr_energy">    -36.82889366 </i>
    <i name="e_wo_entrp">    -36.82889366 </i>
    <i name="e_0_energy">    -36.82889366 </i>
   </energy>
  </scstep>
  <scstep>
   <time name="diag">   78.31   78.39</time>
   <time name="diis">  203.12  204.95</time>
   <time name="orth">    3.09    3.10</time>
   <time name="total">  315.35  317.64</time>
   <energy>
    <i name="e_fr_energy">    -36.82889366 </i>
    <i name="e_wo_entrp">    -36.82889366 </i>
    <i name="e_0_energy">    -36.82889366 </i>
   </energy>
  </scstep>
  <scstep>
   <time name="diag">   77.96   78.41</time>
   <time name="diis">  187.94  189.08</time>
   <time name="orth">    3.08    3.08</time>
   <time name="total">  300.12  301.89</time>
   <energy>
    <i name="e_fr_energy">    -36.82889366 </i>
    <i name="e_wo_entrp">    -36.82889366 </i>
    <i name="e_0_energy">    -36.82889366 </i>
   </energy>
  </scstep>
  <scstep>
   <time name="diag">   77.92   78.40</time>
   <time name="diis">  178.25  179.49</time>
   <time name="orth">    3.09    3.10</time>
   <time name="total">  290.33  292.22</time>
   <energy>
    <i name="e_fr_energy">    -36.82889366 </i>
    <i name="e_wo_entrp">    -36.82889366 </i>
    <i name="e_0_energy">    -36.82889366 </i>
   </energy>
  </scstep>
  <scstep>
   <time name="diag">   78.41   78.44</time>
   <time name="diis">  178.18  178.23</time>
   <time name="orth">    3.10    3.10</time>
   <time name="total">  292.11  292.22</time>
   <energy>
    <i name="e_fr_energy">    -36.82889366 </i>
    <i name="e_wo_entrp">    -36.82889366 </i>
    <i name="e_0_energy">    -36.82889366 </i>
   </energy>
  </scstep>
  <scstep>
   <time name="diag">   78.43   78.44</time>
   <time name="diis">  173.05  173.09</time>
   <time name="orth">    3.08    3.08</time>
   <time name="total">  287.01  287.08</time>
   <energy>
    <i name="e_fr_energy">    -36.82889366 </i>
    <i name="e_wo_entrp">    -36.82889366 </i>
    <i name="e_0_energy">    -36.82889366 </i>
   </energy>
  </scstep>
  <scstep>
   <time name="diag">   78.46   78.47</time>
   <time name="diis">  165.97  166.01</time>
   <time name="orth">    3.08    3.08</time>
   <time name="total">  279.94  279.99</time>
   <energy>
    <i name="e_fr_energy">    -36.82889366 </i>
    <i name="e_wo_entrp">    -36.82889366 </i>
    <i name="e_0_energy">    -36.82889366 </i>
   </energy>
  </scstep>
  <scstep>
   <time name="diag">   78.42   78.43</time>
   <time name="diis">  162.00  162.02</time>
   <time name="orth">    3.08    3.08</time>
   <time name="total">  245.87  246.21</time>
   <energy>
    <i name="alphaZ">      6.18334092 </i>
    <i name="ewald">   2421.84154257 </i>
    <i name="hartreedc">  -2916.19383339 </i>
    <i name="XCdc">     57.06371556 </i>
    <i name="pawpsdc">    267.16775558 </i>
    <i name="pawaedc">   -272.27184300 </i>
    <i name="eentropy">     -0.00000000 </i>
    <i name="bandstr">   -189.24309880 </i>
    <i name="atom">    588.62352690 </i>
    <i name="e_fr_energy">    -36.82889366 </i>
    <i name="e_wo_entrp">    -36.82889366 </i>
    <i name="e_0_energy">    -36.82889366 </i>
   </energy>
  </scstep>
  <structure>
   <crystal>
    <varray name="basis" >
     <v>       4.40189274       0.00000000       0.00000000 </v>
     <v>       0.00000000       2.45540051       0.00000000 </v>
     <v>       0.00000000       0.00000000      19.50683843 </v>
    </varray>
    <i name="volume">    210.83790140 </i>
    <varray name="rec_basis" >
     <v>       0.22717500       0.00000000       0.00000000 </v>
     <v>       0.00000000       0.40726553       0.00000000 </v>
     <v>       0.00000000       0.00000000       0.05126407 </v>
    </varray>
   </crystal>
   <varray name="positions" >
    <v>       0.99938973      -0.00000000       0.00000000 </v>
    <v>       0.16727693       0.50000000       0.00000000 </v>
    <v>       0.49938973       0.50000000       0.00000000 </v>
    <v>       0.66727693      -0.00000000       0.00000000 </v>
   </varray>
  </structure>
  <varray name="forces" >
   <v>       0.00001633       0.00000000      -0.00000000 </v>
   <v>      -0.00001633       0.00000000       0.00000000 </v>
   <v>       0.00001633       0.00000000      -0.00000000 </v>
   <v>      -0.00001633      -0.00000000       0.00000000 </v>
  </varray>
  <varray name="stress" >
   <v>     -49.20787397       0.00000000       0.00000000 </v>
   <v>       0.00000000      -0.00135826       0.00000000 </v>
   <v>       0.00000000       0.00000000      -0.01009221 </v>
  </varray>
  <energy>
   <i name="e_fr_energy">    -36.82889366 </i>
   <i name="e_wo_entrp">    -36.82889366 </i>
   <i name="e_0_energy">     -0.00000000 </i>
  </energy>
  <time name="totalsc"> 2763.61 2775.41</time>
 </calculation>
 <calculation>
  <scstep>
   <time name="dav">  301.90  301.95</time>
   <time name="total">  334.28  334.34</time>
   <energy>
    <i name="alphaZ">      6.18334092 </i>
    <i name="ewald">   2421.84154708 </i>
    <i name="hartreedc">  -2916.19383746 </i>
    <i name="XCdc">     57.06371577 </i>
    <i name="pawpsdc">    267.16775778 </i>
    <i name="pawaedc">   -272.27184522 </i>
    <i name="eentropy">     -0.00000000 </i>
    <i name="bandstr">   -189.24309944 </i>
    <i name="atom">    588.62352690 </i>
    <i name="e_fr_energy">    -36.82889366 </i>
    <i name="e_wo_entrp">    -36.82889366 </i>
    <i name="e_0_energy">    -36.82889366 </i>
   </energy>
  </scstep>
  <scstep>
   <time name="diag">   78.45   78.47</time>
   <time name="diis">  172.67  172.71</time>
   <time name="orth">    3.08    3.08</time>
   <time name="total">  286.67  286.73</time>
   <energy>
    <i name="e_fr_energy">    -36.82889366 </i>
    <i name="e_wo_entrp">    -36.82889366 </i>
    <i name="e_0_energy">    -36.82889366 </i>
   </energy>
  </scstep>
  <scstep>
   <time name="diag">   78.49   78.50</time>
   <time name="diis">  171.29  171.52</time>
   <time name="orth">    3.08    3.08</time>
   <time name="total">  285.13  285.55</time>
   <energy>
    <i name="e_fr_energy">    -36.82889366 </i>
    <i name="e_wo_entrp">    -36.82889366 </i>
    <i name="e_0_energy">    -36.82889366 </i>
   </energy>
  </scstep>
  <scstep>
   <time name="diag">   78.11   78.47</time>
   <time name="diis">  164.33  164.39</time>
   <time name="orth">    3.08    3.08</time>
   <time name="total">  277.91  278.37</time>
   <energy>
    <i name="e_fr_energy">    -36.82889366 </i>
    <i name="e_wo_entrp">    -36.82889366 </i>
    <i name="e_0_energy">    -36.82889366 </i>
   </energy>
  </scstep>
  <scstep>
   <time name="diag">   78.38   78.39</time>
   <time name="diis">  157.13  157.15</time>
   <time name="orth">    3.08    3.08</time>
   <time name="total">  241.00  241.07</time>
   <energy>
    <i name="alphaZ">      6.18334092 </i>
    <i name="ewald">   2421.84154708 </i>
    <i name="hartreedc">  -2916.19384488 </i>
    <i name="XCdc">     57.06371607 </i>
    <i name="pawpsdc">    267.16776857 </i>
    <i name="pawaedc">   -272.27185605 </i>
    <i name="eentropy">     -0.00000000 </i>
    <i name="bandstr">   -189.24309229 </i>
    <i name="atom">    588.62352690 </i>
    <i name="e_fr_energy">    -36.82889366 </i>
    <i name="e_wo_entrp">    -36.82889366 </i>
    <i name="e_0_energy">    -36.82889366 </i>
   </energy>
  </scstep>
  <structure>
   <crystal>
    <varray name="basis" >
     <v>       4.40189274       0.00000000       0.00000000 </v>
     <v>       0.00000000       2.45540051       0.00000000 </v>
     <v>       0.00000000       0.00000000      19.50683843 </v>
    </varray>
    <i name="volume">    210.83790140 </i>
    <varray name="rec_basis" >
     <v>       0.22717500       0.00000000       0.00000000 </v>
     <v>       0.00000000       0.40726553       0.00000000 </v>
     <v>       0.00000000       0.00000000       0.05126407 </v>
    </varray>
   </crystal>
   <varray name="positions" >
    <v>       0.99938977      -0.00000000      -0.00000000 </v>
    <v>       0.16727689       0.50000000       0.00000000 </v>
    <v>       0.49938977       0.50000000      -0.00000000 </v>
    <v>       0.66727689      -0.00000000       0.00000000 </v>
   </varray>
  </structure>
  <varray name="forces" >
   <v>       0.00000375      -0.00000000       0.00000000 </v>
   <v>      -0.00000375       0.00000000       0.00000000 </v>
   <v>       0.00000375       0.00000000       0.00000000 </v>
   <v>      -0.00000375      -0.00000000       0.00000000 </v>
  </varray>
  <varray name="stress" >
   <v>     -49.20787028       0.00000000       0.00000000 </v>
   <v>       0.00000000      -0.00134030       0.00000000 </v>
   <v>       0.00000000       0.00000000      -0.01010329 </v>
  </varray>
  <energy>
   <i name="e_fr_energy">    -36.82889366 </i>
   <i name="e_wo_entrp">    -36.82889366 </i>
   <i name="e_0_energy">     -0.00000000 </i>
  </energy>
  <time name="totalsc"> 1527.62 1529.06</time>
 </calculation>
 <calculation>
  <scstep>
   <time name="dav">  244.59  246.00</time>
   <time name="total">  276.82  278.44</time>
   <energy>
    <i name="alphaZ">      6.18334092 </i>
    <i name="ewald">   2421.84154842 </i>
    <i name="hartreedc">  -2916.19384571 </i>
    <i name="XCdc">     57.06371611 </i>
    <i name="pawpsdc">    267.16776867 </i>
    <i name="pawaedc">   -272.27185614 </i>
    <i name="eentropy">     -0.00000000 </i>
    <i name="bandstr">   -189.24309284 </i>
    <i name="atom">    588.62352690 </i>
    <i name="e_fr_energy">    -36.82889366 </i>
    <i name="e_wo_entrp">    -36.82889366 </i>
    <i name="e_0_energy">    -36.82889366 </i>
   </energy>
  </scstep>
  <scstep>
   <time name="diag">   78.08   78.45</time>
   <time name="diis">  143.32  143.73</time>
   <time name="orth">    3.08    3.08</time>
   <time name="total">  256.85  257.72</time>
   <energy>
    <i name="e_fr_energy">    -36.82889366 </i>
    <i name="e_wo_entrp">    -36.82889366 </i>
    <i name="e_0_energy">    -36.82889366 </i>
   </energy>
  </scstep>
  <scstep>
   <time name="diag">   78.00   78.36</time>
   <time name="diis">  140.76  141.45</time>
   <time name="orth">    3.07    3.08</time>
   <time name="total">  252.93  254.20</time>
   <energy>
    <i name="e_fr_energy">    -36.82889366 </i>
    <i name="e_wo_entrp">    -36.82889366 </i>
    <i name="e_0_energy">    -36.82889366 </i>
   </energy>
  </scstep>
  <scstep>
   <time name="diag">   78.31   78.37</time>
   <time name="diis">  128.91  128.93</time>
   <time name="orth">    3.10    3.10</time>
   <time name="total">  241.36  241.45</time>
   <energy>
    <i name="e_fr_energy">    -36.82889366 </i>
    <i name="e_wo_entrp">    -36.82889366 </i>
    <i name="e_0_energy">    -36.82889366 </i>
   </energy>
  </scstep>
  <scstep>
   <time name="diag">   78.38   78.40</time>
   <time name="diis">  130.47  130.50</time>
   <time name="orth">    3.08    3.08</time>
   <time name="total">  214.39  214.43</time>
   <energy>
    <i name="alphaZ">      6.18334092 </i>
    <i name="ewald">   2421.84154842 </i>
    <i name="hartreedc">  -2916.19384486 </i>
    <i name="XCdc">     57.06371606 </i>
    <i name="pawpsdc">    267.16777021 </i>
    <i name="pawaedc">   -272.27185768 </i>
    <i name="eentropy">     -0.00000000 </i>
    <i name="bandstr">   -189.24309364 </i>
    <i name="atom">    588.62352690 </i>
    <i name="e_fr_energy">    -36.82889366 </i>
    <i name="e_wo_entrp">    -36.82889366 </i>
    <i name="e_0_energy">    -36.82889366 </i>
   </energy>
  </scstep>
  <structure>
   <crystal>
    <varray name="basis" >
     <v>       4.40189274       0.00000000       0.00000000 </v>
     <v>       0.00000000       2.45540051       0.00000000 </v>
     <v>       0.00000000       0.00000000      19.50683843 </v>
    </varray>
    <i name="volume">    210.83790140 </i>
    <varray name="rec_basis" >
     <v>       0.22717500       0.00000000       0.00000000 </v>
     <v>       0.00000000       0.40726553       0.00000000 </v>
     <v>       0.00000000       0.00000000       0.05126407 </v>
    </varray>
   </crystal>
   <varray name="positions" >
    <v>       0.99938979      -0.00000000       0.00000000 </v>
    <v>       0.16727688       0.50000000      -0.00000000 </v>
    <v>       0.49938979       0.50000000       0.00000000 </v>
    <v>       0.66727688      -0.00000000      -0.00000000 </v>
   </varray>
  </structure>
  <varray name="forces" >
   <v>      -0.00000482       0.00000000       0.00000000 </v>
   <v>       0.00000482      -0.00000000       0.00000000 </v>
   <v>      -0.00000482      -0.00000000       0.00000000 </v>
   <v>       0.00000482       0.00000000       0.00000000 </v>
  </varray>
  <varray name="stress" >
   <v>     -49.20789564       0.00000000       0.00000000 </v>
   <v>       0.00000000      -0.00129907       0.00000000 </v>
   <v>       0.00000000       0.00000000      -0.01012235 </v>
  </varray>
  <energy>
   <i name="e_fr_energy">    -36.82889366 </i>
   <i name="e_wo_entrp">    -36.82889366 </i>
   <i name="e_0_energy">     -0.00000000 </i>
  </energy>
  <time name="totalsc"> 1343.08 1347.98</time>
 </calculation>
 <calculation>
  <scstep>
   <time name="dav">  239.58  241.36</time>
   <time name="total">  271.18  273.32</time>
   <energy>
    <i name="alphaZ">      6.18334092 </i>
    <i name="ewald">   2421.84154767 </i>
    <i name="hartreedc">  -2916.19384453 </i>
    <i name="XCdc">     57.06371604 </i>
    <i name="pawpsdc">    267.16777024 </i>
    <i name="pawaedc">   -272.27185771 </i>
    <i name="eentropy">     -0.00000000 </i>
    <i name="bandstr">   -189.24309319 </i>
    <i name="atom">    588.62352690 </i>
    <i name="e_fr_energy">    -36.82889366 </i>
    <i name="e_wo_entrp">    -36.82889366 </i>
    <i name="e_0_energy">    -36.82889366 </i>
   </energy>
  </scstep>
  <scstep>
   <time name="diag">   77.77   78.43</time>
   <time name="diis">  122.82  123.44</time>
   <time name="orth">    3.10    3.10</time>
   <time name="total">  234.75  236.21</time>
   <energy>
    <i name="e_fr_energy">    -36.82889366 </i>
    <i name="e_wo_entrp">    -36.82889366 </i>
    <i name="e_0_energy">    -36.82889366 </i>
   </energy>
  </scstep>
  <scstep>
   <time name="diag">   77.94   78.40</time>
   <time name="diis">  126.88  127.60</time>
   <time name="orth">    3.09    3.10</time>
   <time name="total">  239.27  240.64</time>
   <energy>
    <i name="e_fr_energy">    -36.82889366 </i>
    <i name="e_wo_entrp">    -36.82889366 </i>
    <i name="e_0_energy">    -36.82889366 </i>
   </energy>
  </scstep>
  <scstep>
   <time name="diag">   78.35   78.36</time>
   <time name="diis">  121.96  121.99</time>
   <time name="orth">    3.09    3.09</time>
   <time name="total">  234.37  234.41</time>
   <energy>
    <i name="e_fr_energy">    -36.82889366 </i>
    <i name="e_wo_entrp">    -36.82889366 </i>
    <i name="e_0_energy">    -36.82889366 </i>
   </energy>
  </scstep>
  <scstep>
   <time name="diag">   78.32   78.34</time>
   <time name="diis">  119.99  120.02</time>
   <time name="orth">    3.11    3.11</time>
   <time name="total">  203.82  205.72</time>
   <energy>
    <i name="alphaZ">      6.18334092 </i>
    <i name="ewald">   2421.84154767 </i>
    <i name="hartreedc">  -2916.19384474 </i>
    <i name="XCdc">     57.06371604 </i>
    <i name="pawpsdc">    267.16777008 </i>
    <i name="pawaedc">   -272.27185754 </i>
    <i name="eentropy">     -0.00000000 </i>
    <i name="bandstr">   -189.24309299 </i>
    <i name="atom">    588.62352690 </i>
    <i name="e_fr_energy">    -36.82889366 </i>
    <i name="e_wo_entrp">    -36.82889366 </i>
    <i name="e_0_energy">    -36.82889366 </i>
   </energy>
  </scstep>
  <structure>
   <crystal>
    <varray name="basis" >
     <v>       4.40189274       0.00000000       0.00000000 </v>
     <v>       0.00000000       2.45540051       0.00000000 </v>
     <v>       0.00000000       0.00000000      19.50683843 </v>
    </varray>
    <i name="volume">    210.83790140 </i>
    <varray name="rec_basis" >
     <v>       0.22717500       0.00000000       0.00000000 </v>
     <v>       0.00000000       0.40726553       0.00000000 </v>
     <v>       0.00000000       0.00000000       0.05126407 </v>
    </varray>
   </crystal>
   <varray name="positions" >
    <v>       0.99938978      -0.00000000      -0.00000000 </v>
    <v>       0.16727689       0.50000000       0.00000000 </v>
    <v>       0.49938978       0.50000000      -0.00000000 </v>
    <v>       0.66727689      -0.00000000       0.00000000 </v>
   </varray>
  </structure>
  <varray name="forces" >
   <v>      -0.00000058      -0.00000000       0.00000000 </v>
   <v>       0.00000058      -0.00000000      -0.00000000 </v>
   <v>      -0.00000058      -0.00000000       0.00000000 </v>
   <v>       0.00000058       0.00000000      -0.00000000 </v>
  </varray>
  <varray name="stress" >
   <v>     -49.20789339       0.00000000       0.00000000 </v>
   <v>       0.00000000      -0.00131507       0.00000000 </v>
   <v>       0.00000000       0.00000000      -0.01011657 </v>
  </varray>
  <energy>
   <i name="e_fr_energy">    -36.82889366 </i>
   <i name="e_wo_entrp">    -36.82889366 </i>
   <i name="e_0_energy">     -0.00000000 </i>
  </energy>
  <time name="totalsc"> 1278.83 1286.15</time>
  <eigenvalues>
   <array>
    <dimension dim="1">band</dimension>
    <dimension dim="2">kpoint</dimension>
    <dimension dim="3">spin</dimension>
    <field>eigene</field>
    <field>occ</field>
    <set>
     <set comment="spin 1">
      <set comment="kpoint 1">
       <r>  -22.0453    1.0000 </r>
       <r>  -17.3026    1.0000 </r>
       <r>  -15.8009    1.0000 </r>
       <r>  -10.1981    1.0000 </r>
       <r>   -8.7366    1.0000 </r>
       <r>   -6.0468    1.0000 </r>
       <r>   -5.7177    1.0000 </r>
       <r>   -5.3797    1.0000 </r>
       <r>   -1.2052    0.0000 </r>
       <r>    0.5492    0.0000 </r>
       <r>    1.3466    0.0000 </r>
       <r>    1.7423    0.0000 </r>
      </set>
      <set comment="kpoint 2">
       <r>  -22.0357    1.0000 </r>
       <r>  -17.4135    1.0000 </r>
       <r>  -15.6750    1.0000 </r>
       <r>  -10.1867    1.0000 </r>
       <r>   -8.7273    1.0000 </r>
       <r>   -6.0914    1.0000 </r>
       <r>   -5.7373    1.0000 </r>
       <r>   -5.4369    1.0000 </r>
       <r>   -1.1324    0.0000 </r>
       <r>    0.5623    0.0000 </r>
       <r>    1.3599    0.0000 </r>
       <r>    1.7557    0.0000 </r>
      </set>
      <set comment="kpoint 3">
       <r>  -22.0067    1.0000 </r>
       <r>  -17.6752    1.0000 </r>
       <r>  -15.3686    1.0000 </r>
       <r>  -10.1524    1.0000 </r>
       <r>   -8.6995    1.0000 </r>
       <r>   -6.2230    1.0000 </r>
       <r>   -5.7950    1.0000 </r>
       <r>   -5.5972    1.0000 </r>
       <r>   -0.9253    0.0000 </r>
       <r>    0.6014    0.0000 </r>
       <r>    1.3996    0.0000 </r>
       <r>    1.7960    0.0000 </r>
      </set>
      <set comment="kpoint 4">
       <r>  -21.9584    1.0000 </r>
       <r>  -17.9962    1.0000 </r>
       <r>  -14.9734    1.0000 </r>
       <r>  -10.0952    1.0000 </r>
       <r>   -8.6532    1.0000 </r>
       <r>   -6.4355    1.0000 </r>
       <r>   -5.8880    1.0000 </r>
       <r>   -5.8346    1.0000 </r>
       <r>   -0.6105    0.0000 </r>
       <r>    0.6668    0.0000 </r>
       <r>    1.4659    0.0000 </r>
       <r>    1.8631    0.0000 </r>
      </set>
      <set comment="kpoint 5">
       <r>  -21.8909    1.0000 </r>
       <r>  -18.3338    1.0000 </r>
       <r>  -14.5324    1.0000 </r>
       <r>  -10.0154    1.0000 </r>
       <r>   -8.5889    1.0000 </r>
       <r>   -6.7200    1.0000 </r>
       <r>   -6.1214    1.0000 </r>
       <r>   -6.0120    1.0000 </r>
       <r>   -0.2162    0.0000 </r>
       <r>    0.7583    0.0000 </r>
       <r>    1.5586    0.0000 </r>
       <r>    1.9571    0.0000 </r>
      </set>
      <set comment="kpoint 6">
       <r>  -21.8041    1.0000 </r>
       <r>  -18.6709    1.0000 </r>
       <r>  -14.0633    1.0000 </r>
       <r>   -9.9129    1.0000 </r>
       <r>   -8.5068    1.0000 </r>
       <r>   -7.0660    1.0000 </r>
       <r>   -6.4361    1.0000 </r>
       <r>   -6.1618    1.0000 </r>
       <r>    0.2344    0.0000 </r>
       <r>    0.8760    0.0000 </r>
       <r>    1.6777    0.0000 </r>
       <r>    2.0779    0.0000 </r>
      </set>
      <set comment="kpoint 7">
       <r>  -21.6983    1.0000 </r>
       <r>  -18.9999    1.0000 </r>
       <r>  -13.5743    1.0000 </r>
       <r>   -9.7881    1.0000 </r>
       <r>   -8.4074    1.0000 </r>
       <r>   -7.4631    1.0000 </r>
       <r>   -6.7631    1.0000 </r>
       <r>   -6.3317    1.0000 </r>
       <r>    0.7248    0.0000 </r>
       <r>    1.0199    0.0000 </r>
       <r>    1.8232    0.0000 </r>
       <r>    2.2256    0.0000 </r>
      </set>
      <set comment="kpoint 8">
       <r>  -21.5733    1.0000 </r>
       <r>  -19.3169    1.0000 </r>
       <r>  -13.0705    1.0000 </r>
       <r>   -9.6412    1.0000 </r>
       <r>   -8.2914    1.0000 </r>
       <r>   -7.9011    1.0000 </r>
       <r>   -7.0923    1.0000 </r>
       <r>   -6.5164    1.0000 </r>
       <r>    1.1900    0.0000 </r>
       <r>    1.2423    0.0000 </r>
       <r>    1.9948    0.0000 </r>
       <r>    2.4002    0.0000 </r>
      </set>
      <set comment="kpoint 9">
       <r>  -21.4294    1.0000 </r>
       <r>  -19.6197    1.0000 </r>
       <r>  -12.5550    1.0000 </r>
       <r>   -9.4724    1.0000 </r>
       <r>   -8.3712    1.0000 </r>
       <r>   -8.1596    1.0000 </r>
       <r>   -7.4166    1.0000 </r>
       <r>   -6.7105    1.0000 </r>
       <r>    1.3863    0.0000 </r>
       <r>    1.7774    0.0000 </r>
       <r>    2.1926    0.0000 </r>
       <r>    2.6016    0.0000 </r>
      </set>
      <set comment="kpoint 10">
       <r>  -21.2667    1.0000 </r>
       <r>  -19.9069    1.0000 </r>
       <r>  -12.0307    1.0000 </r>
       <r>   -9.2823    1.0000 </r>
       <r>   -8.8656    1.0000 </r>
       <r>   -8.0129    1.0000 </r>
       <r>   -7.7314    1.0000 </r>
       <r>   -6.9095    1.0000 </r>
       <r>    1.6087    0.0000 </r>
       <r>    2.3209    0.0000 </r>
       <r>    2.4159    0.0000 </r>
       <r>    2.8299    0.0000 </r>
      </set>
      <set comment="kpoint 11">
       <r>  -21.0853    1.0000 </r>
       <r>  -20.1777    1.0000 </r>
       <r>  -11.5003    1.0000 </r>
       <r>   -9.3775    1.0000 </r>
       <r>   -9.0712    1.0000 </r>
       <r>   -8.0332    1.0000 </r>
       <r>   -7.8526    1.0000 </r>
       <r>   -7.1092    1.0000 </r>
       <r>    1.8571    0.0000 </r>
       <r>    2.6641    0.0000 </r>
       <r>    2.8592    0.0000 </r>
       <r>    3.0850    0.0000 </r>
      </set>
      <set comment="kpoint 12">
       <r>  -20.8855    1.0000 </r>
       <r>  -20.4313    1.0000 </r>
       <r>  -10.9665    1.0000 </r>
       <r>   -9.9013    1.0000 </r>
       <r>   -8.8398    1.0000 </r>
       <r>   -8.3196    1.0000 </r>
       <r>   -7.6802    1.0000 </r>
       <r>   -7.3062    1.0000 </r>
       <r>    2.1315    0.0000 </r>
       <r>    2.7578    0.0000 </r>
       <r>    2.9345    0.0000 </r>
       <r>    3.3110    0.0000 </r>
      </set>
      <set comment="kpoint 13">
       <r>  -20.6674    1.0000 </r>
       <r>  -20.6674    1.0000 </r>
       <r>  -10.4323    1.0000 </r>
       <r>  -10.4323    1.0000 </r>
       <r>   -8.5889    1.0000 </r>
       <r>   -8.5889    1.0000 </r>
       <r>   -7.4973    1.0000 </r>
       <r>   -7.4973    1.0000 </r>
       <r>    2.4318    0.0000 </r>
       <r>    2.4318    0.0000 </r>
       <r>    3.2140    0.0000 </r>
       <r>    3.2140    0.0000 </r>
      </set>
      <set comment="kpoint 14">
       <r>  -22.0315    1.0000 </r>
       <r>  -17.2905    1.0000 </r>
       <r>  -15.7890    1.0000 </r>
       <r>  -10.1817    1.0000 </r>
       <r>   -8.8003    1.0000 </r>
       <r>   -6.0721    1.0000 </r>
       <r>   -5.7772    1.0000 </r>
       <r>   -5.3630    1.0000 </r>
       <r>   -1.2074    0.0000 </r>
       <r>    0.5680    0.0000 </r>
       <r>    1.3656    0.0000 </r>
       <r>    1.7615    0.0000 </r>
      </set>
      <set comment="kpoint 15">
       <r>  -22.0218    1.0000 </r>
       <r>  -17.4014    1.0000 </r>
       <r>  -15.6633    1.0000 </r>
       <r>  -10.1703    1.0000 </r>
       <r>   -8.7910    1.0000 </r>
       <r>   -6.1172    1.0000 </r>
       <r>   -5.7957    1.0000 </r>
       <r>   -5.4203    1.0000 </r>
       <r>   -1.1345    0.0000 </r>
       <r>    0.5810    0.0000 </r>
       <r>    1.3788    0.0000 </r>
       <r>    1.7749    0.0000 </r>
      </set>
      <set comment="kpoint 16">
       <r>  -21.9928    1.0000 </r>
       <r>  -17.6629    1.0000 </r>
       <r>  -15.3573    1.0000 </r>
       <r>  -10.1359    1.0000 </r>
       <r>   -8.7631    1.0000 </r>
       <r>   -6.2492    1.0000 </r>
       <r>   -5.8514    1.0000 </r>
       <r>   -5.5809    1.0000 </r>
       <r>   -0.9275    0.0000 </r>
       <r>    0.6202    0.0000 </r>
       <r>    1.4186    0.0000 </r>
       <r>    1.8152    0.0000 </r>
      </set>
      <set comment="kpoint 17">
       <r>  -21.9446    1.0000 </r>
       <r>  -17.9836    1.0000 </r>
       <r>  -14.9625    1.0000 </r>
       <r>  -10.0788    1.0000 </r>
       <r>   -8.7168    1.0000 </r>
       <r>   -6.4608    1.0000 </r>
       <r>   -5.9428    1.0000 </r>
       <r>   -5.8185    1.0000 </r>
       <r>   -0.6129    0.0000 </r>
       <r>    0.6855    0.0000 </r>
       <r>    1.4848    0.0000 </r>
       <r>    1.8823    0.0000 </r>
      </set>
      <set comment="kpoint 18">
       <r>  -21.8771    1.0000 </r>
       <r>  -18.3210    1.0000 </r>
       <r>  -14.5220    1.0000 </r>
       <r>   -9.9990    1.0000 </r>
       <r>   -8.6523    1.0000 </r>
       <r>   -6.7430    1.0000 </r>
       <r>   -6.1056    1.0000 </r>
       <r>   -6.0661    1.0000 </r>
       <r>   -0.2191    0.0000 </r>
       <r>    0.7771    0.0000 </r>
       <r>    1.5775    0.0000 </r>
       <r>    1.9763    0.0000 </r>
      </set>
      <set comment="kpoint 19">
       <r>  -21.7903    1.0000 </r>
       <r>  -18.6580    1.0000 </r>
       <r>  -14.0534    1.0000 </r>
       <r>   -9.8966    1.0000 </r>
       <r>   -8.5701    1.0000 </r>
       <r>   -7.0858    1.0000 </r>
       <r>   -6.4204    1.0000 </r>
       <r>   -6.2161    1.0000 </r>
       <r>    0.2308    0.0000 </r>
       <r>    0.8948    0.0000 </r>
       <r>    1.6966    0.0000 </r>
       <r>    2.0971    0.0000 </r>
      </set>
      <set comment="kpoint 20">
       <r>  -21.6845    1.0000 </r>
       <r>  -18.9868    1.0000 </r>
       <r>  -13.5652    1.0000 </r>
       <r>   -9.7718    1.0000 </r>
       <r>   -8.4706    1.0000 </r>
       <r>   -7.4792    1.0000 </r>
       <r>   -6.7475    1.0000 </r>
       <r>   -6.3867    1.0000 </r>
       <r>    0.7201    0.0000 </r>
       <r>    1.0387    0.0000 </r>
       <r>    1.8421    0.0000 </r>
       <r>    2.2448    0.0000 </r>
      </set>
      <set comment="kpoint 21">
       <r>  -21.5595    1.0000 </r>
       <r>  -19.3037    1.0000 </r>
       <r>  -13.0621    1.0000 </r>
       <r>   -9.6250    1.0000 </r>
       <r>   -8.3544    1.0000 </r>
       <r>   -7.9135    1.0000 </r>
       <r>   -7.0767    1.0000 </r>
       <r>   -6.5724    1.0000 </r>
       <r>    1.2088    0.0000 </r>
       <r>    1.2364    0.0000 </r>
       <r>    2.0138    0.0000 </r>
       <r>    2.4194    0.0000 </r>
      </set>
      <set comment="kpoint 22">
       <r>  -21.4157    1.0000 </r>
       <r>  -19.6064    1.0000 </r>
       <r>  -12.5476    1.0000 </r>
       <r>   -9.4563    1.0000 </r>
       <r>   -8.3801    1.0000 </r>
       <r>   -8.2223    1.0000 </r>
       <r>   -7.4010    1.0000 </r>
       <r>   -6.7676    1.0000 </r>
       <r>    1.4051    0.0000 </r>
       <r>    1.7701    0.0000 </r>
       <r>    2.2115    0.0000 </r>
       <r>    2.6208    0.0000 </r>
      </set>
      <set comment="kpoint 23">
       <r>  -21.2530    1.0000 </r>
       <r>  -19.8935    1.0000 </r>
       <r>  -12.0244    1.0000 </r>
       <r>   -9.2661    1.0000 </r>
       <r>   -8.8713    1.0000 </r>
       <r>   -8.0753    1.0000 </r>
       <r>   -7.7157    1.0000 </r>
       <r>   -6.9677    1.0000 </r>
       <r>    1.6275    0.0000 </r>
       <r>    2.3122    0.0000 </r>
       <r>    2.4349    0.0000 </r>
       <r>    2.8491    0.0000 </r>
      </set>
      <set comment="kpoint 24">
       <r>  -21.0717    1.0000 </r>
       <r>  -20.1642    1.0000 </r>
       <r>  -11.4953    1.0000 </r>
       <r>   -9.3804    1.0000 </r>
       <r>   -9.0551    1.0000 </r>
       <r>   -8.0174    1.0000 </r>
       <r>   -7.9146    1.0000 </r>
       <r>   -7.1684    1.0000 </r>
       <r>    1.8759    0.0000 </r>
       <r>    2.6831    0.0000 </r>
       <r>    2.8497    0.0000 </r>
       <r>    3.1042    0.0000 </r>
      </set>
      <set comment="kpoint 25">
       <r>  -20.8718    1.0000 </r>
       <r>  -20.4178    1.0000 </r>
       <r>  -10.9630    1.0000 </r>
       <r>   -9.9018    1.0000 </r>
       <r>   -8.8238    1.0000 </r>
       <r>   -8.3038    1.0000 </r>
       <r>   -7.7416    1.0000 </r>
       <r>   -7.3662    1.0000 </r>
       <r>    2.1504    0.0000 </r>
       <r>    2.7766    0.0000 </r>
       <r>    2.9534    0.0000 </r>
       <r>    3.3110    0.0000 </r>
      </set>
      <set comment="kpoint 26">
       <r>  -20.6538    1.0000 </r>
       <r>  -20.6538    1.0000 </r>
       <r>  -10.4307    1.0000 </r>
       <r>  -10.4307    1.0000 </r>
       <r>   -8.5730    1.0000 </r>
       <r>   -8.5730    1.0000 </r>
       <r>   -7.5581    1.0000 </r>
       <r>   -7.5581    1.0000 </r>
       <r>    2.4506    0.0000 </r>
       <r>    2.4506    0.0000 </r>
       <r>    3.2323    0.0000 </r>
       <r>    3.2323    0.0000 </r>
      </set>
      <set comment="kpoint 27">
       <r>  -21.9899    1.0000 </r>
       <r>  -17.2544    1.0000 </r>
       <r>  -15.7537    1.0000 </r>
       <r>  -10.1325    1.0000 </r>
       <r>   -8.9860    1.0000 </r>
       <r>   -6.1477    1.0000 </r>
       <r>   -5.9507    1.0000 </r>
       <r>   -5.3129    1.0000 </r>
       <r>   -1.2147    0.0000 </r>
       <r>    0.6243    0.0000 </r>
       <r>    1.4224    0.0000 </r>
       <r>    1.8190    0.0000 </r>
      </set>
      <set comment="kpoint 28">
       <r>  -21.9802    1.0000 </r>
       <r>  -17.3649    1.0000 </r>
       <r>  -15.6284    1.0000 </r>
       <r>  -10.1210    1.0000 </r>
       <r>   -8.9767    1.0000 </r>
       <r>   -6.1960    1.0000 </r>
       <r>   -5.9643    1.0000 </r>
       <r>   -5.3706    1.0000 </r>
       <r>   -1.1418    0.0000 </r>
       <r>    0.6373    0.0000 </r>
       <r>    1.4357    0.0000 </r>
       <r>    1.8325    0.0000 </r>
      </set>
      <set comment="kpoint 29">
       <r>  -21.9513    1.0000 </r>
       <r>  -17.6257    1.0000 </r>
       <r>  -15.3234    1.0000 </r>
       <r>  -10.0867    1.0000 </r>
[...]
       <r>   -9.3814    1.0000 </r>
       <r>   -5.4970    1.0000 </r>
       <r>   -5.4970    1.0000 </r>
       <r>   -0.5089    0.0000 </r>
       <r>   -0.5089    0.0000 </r>
       <r>    4.0034    0.0000 </r>
       <r>    4.0034    0.0000 </r>
      </set>
      <set comment="kpoint 209">
       <r>  -18.5795    1.0000 </r>
       <r>  -16.7581    1.0000 </r>
       <r>  -14.2471    1.0000 </r>
       <r>  -12.5731    1.0000 </r>
       <r>  -12.2718    1.0000 </r>
       <r>  -10.7628    1.0000 </r>
       <r>   -6.2471    1.0000 </r>
       <r>   -4.3730    1.0000 </r>
       <r>   -1.2479    0.0000 </r>
       <r>    0.9089    0.0000 </r>
       <r>    5.3271    0.0000 </r>
       <r>    6.0931    0.0000 </r>
      </set>
      <set comment="kpoint 210">
       <r>  -18.5704    1.0000 </r>
       <r>  -16.7511    1.0000 </r>
       <r>  -14.3107    1.0000 </r>
       <r>  -12.6332    1.0000 </r>
       <r>  -12.2005    1.0000 </r>
       <r>  -10.7053    1.0000 </r>
       <r>   -6.2389    1.0000 </r>
       <r>   -4.3772    1.0000 </r>
       <r>   -1.2537    0.0000 </r>
       <r>    0.8868    0.0000 </r>
       <r>    5.3399    0.0000 </r>
       <r>    6.1080    0.0000 </r>
      </set>
      <set comment="kpoint 211">
       <r>  -18.5430    1.0000 </r>
       <r>  -16.7304    1.0000 </r>
       <r>  -14.4779    1.0000 </r>
       <r>  -12.7932    1.0000 </r>
       <r>  -12.0103    1.0000 </r>
       <r>  -10.5536    1.0000 </r>
       <r>   -6.2144    1.0000 </r>
       <r>   -4.3903    1.0000 </r>
       <r>   -1.2694    0.0000 </r>
       <r>    0.8220    0.0000 </r>
       <r>    5.3780    0.0000 </r>
       <r>    6.1526    0.0000 </r>
      </set>
      <set comment="kpoint 212">
       <r>  -18.4976    1.0000 </r>
       <r>  -16.6974    1.0000 </r>
       <r>  -14.7039    1.0000 </r>
       <r>  -13.0148    1.0000 </r>
       <r>  -11.7458    1.0000 </r>
       <r>  -10.3479    1.0000 </r>
       <r>   -6.1739    1.0000 </r>
       <r>   -4.4135    1.0000 </r>
       <r>   -1.2912    0.0000 </r>
       <r>    0.7188    0.0000 </r>
       <r>    5.4404    0.0000 </r>
       <r>    6.2311    0.0000 </r>
      </set>
      <set comment="kpoint 213">
       <r>  -18.4341    1.0000 </r>
       <r>  -16.6553    1.0000 </r>
       <r>  -14.9529    1.0000 </r>
       <r>  -13.2681    1.0000 </r>
       <r>  -11.4419    1.0000 </r>
       <r>  -10.1212    1.0000 </r>
       <r>   -6.1177    1.0000 </r>
       <r>   -4.4487    1.0000 </r>
       <r>   -1.3131    0.0000 </r>
       <r>    0.5830    0.0000 </r>
       <r>    5.5129    0.0000 </r>
       <r>    5.7263    0.0000 </r>
      </set>
      <set comment="kpoint 214">
       <r>  -18.3528    1.0000 </r>
       <r>  -16.6101    1.0000 </r>
       <r>  -15.1998    1.0000 </r>
       <r>  -13.5353    1.0000 </r>
       <r>  -11.1207    1.0000 </r>
       <r>   -9.8959    1.0000 </r>
       <r>   -6.0466    1.0000 </r>
       <r>   -4.4977    1.0000 </r>
       <r>   -1.3281    0.0000 </r>
       <r>    0.4219    0.0000 </r>
       <r>    5.2102    0.0000 </r>
       <r>    5.6637    0.0000 </r>
      </set>
      <set comment="kpoint 215">
       <r>  -18.2540    1.0000 </r>
       <r>  -16.5744    1.0000 </r>
       <r>  -15.4212    1.0000 </r>
       <r>  -13.8056    1.0000 </r>
       <r>  -10.7968    1.0000 </r>
       <r>   -9.6878    1.0000 </r>
       <r>   -5.9613    1.0000 </r>
       <r>   -4.5622    1.0000 </r>
       <r>   -1.3296    0.0000 </r>
       <r>    0.2429    0.0000 </r>
       <r>    4.7902    0.0000 </r>
       <r>    5.8001    0.0000 </r>
      </set>
      <set comment="kpoint 216">
       <r>  -18.1380    1.0000 </r>
       <r>  -16.5724    1.0000 </r>
       <r>  -15.5871    1.0000 </r>
       <r>  -14.0725    1.0000 </r>
       <r>  -10.4814    1.0000 </r>
       <r>   -9.5093    1.0000 </r>
       <r>   -5.8631    1.0000 </r>
       <r>   -4.6431    1.0000 </r>
       <r>   -1.3116    0.0000 </r>
       <r>    0.0530    0.0000 </r>
       <r>    4.4315    0.0000 </r>
       <r>    5.3868    0.0000 </r>
      </set>
      <set comment="kpoint 217">
       <r>  -18.0053    1.0000 </r>
       <r>  -16.6341    1.0000 </r>
       <r>  -15.6636    1.0000 </r>
       <r>  -14.3316    1.0000 </r>
       <r>  -10.1841    1.0000 </r>
       <r>   -9.3709    1.0000 </r>
       <r>   -5.7532    1.0000 </r>
       <r>   -4.7398    1.0000 </r>
       <r>   -1.2701    0.0000 </r>
       <r>   -0.1413    0.0000 </r>
       <r>    4.1461    0.0000 </r>
       <r>    4.9501    0.0000 </r>
      </set>
      <set comment="kpoint 218">
       <r>  -17.8567    1.0000 </r>
       <r>  -16.7658    1.0000 </r>
       <r>  -15.6421    1.0000 </r>
       <r>  -14.5798    1.0000 </r>
       <r>   -9.9141    1.0000 </r>
       <r>   -9.2810    1.0000 </r>
       <r>   -5.6335    1.0000 </r>
       <r>   -4.8506    1.0000 </r>
       <r>   -1.2031    0.0000 </r>
       <r>   -0.3340    0.0000 </r>
       <r>    3.9423    0.0000 </r>
       <r>    4.5708    0.0000 </r>
      </set>
      <set comment="kpoint 219">
       <r>  -17.6932    1.0000 </r>
       <r>  -16.9415    1.0000 </r>
       <r>  -15.5473    1.0000 </r>
       <r>  -14.8142    1.0000 </r>
       <r>   -9.6801    1.0000 </r>
       <r>   -9.2460    1.0000 </r>
       <r>   -5.5059    1.0000 </r>
       <r>   -4.9728    1.0000 </r>
       <r>   -1.1103    0.0000 </r>
       <r>   -0.5199    0.0000 </r>
       <r>    3.8261    0.0000 </r>
       <r>    4.2582    0.0000 </r>
      </set>
      <set comment="kpoint 220">
       <r>  -17.5163    1.0000 </r>
       <r>  -17.1343    1.0000 </r>
       <r>  -15.4051    1.0000 </r>
       <r>  -15.0323    1.0000 </r>
       <r>   -9.4902    1.0000 </r>
       <r>   -9.2693    1.0000 </r>
       <r>   -5.3730    1.0000 </r>
       <r>   -5.1030    1.0000 </r>
       <r>   -0.9929    0.0000 </r>
       <r>   -0.6943    0.0000 </r>
       <r>    3.8008    0.0000 </r>
       <r>    4.0210    0.0000 </r>
      </set>
      <set comment="kpoint 221">
       <r>  -17.3285    1.0000 </r>
       <r>  -17.3285    1.0000 </r>
       <r>  -15.2308    1.0000 </r>
       <r>  -15.2308    1.0000 </r>
       <r>   -9.3516    1.0000 </r>
       <r>   -9.3516    1.0000 </r>
       <r>   -5.2376    1.0000 </r>
       <r>   -5.2376    1.0000 </r>
       <r>   -0.8532    0.0000 </r>
       <r>   -0.8532    0.0000 </r>
       <r>    3.8668    0.0000 </r>
       <r>    3.8668    0.0000 </r>
      </set>
      <set comment="kpoint 222">
       <r>  -18.1498    1.0000 </r>
       <r>  -17.2353    1.0000 </r>
       <r>  -13.8596    1.0000 </r>
       <r>  -13.0219    1.0000 </r>
       <r>  -11.9252    1.0000 </r>
       <r>  -11.1656    1.0000 </r>
       <r>   -5.7885    1.0000 </r>
       <r>   -4.8456    1.0000 </r>
       <r>   -0.7408    0.0000 </r>
       <r>    0.3399    0.0000 </r>
       <r>    5.9345    0.0000 </r>
       <r>    6.6539    0.0000 </r>
      </set>
      <set comment="kpoint 223">
       <r>  -18.1408    1.0000 </r>
       <r>  -17.2271    1.0000 </r>
       <r>  -13.9238    1.0000 </r>
       <r>  -13.0838    1.0000 </r>
       <r>  -11.8561    1.0000 </r>
       <r>  -11.1036    1.0000 </r>
       <r>   -5.7816    1.0000 </r>
       <r>   -4.8440    1.0000 </r>
       <r>   -0.7536    0.0000 </r>
       <r>    0.3199    0.0000 </r>
       <r>    5.9472    0.0000 </r>
       <r>    6.6698    0.0000 </r>
      </set>
      <set comment="kpoint 224">
       <r>  -18.1140    1.0000 </r>
       <r>  -17.2027    1.0000 </r>
       <r>  -14.0930    1.0000 </r>
       <r>  -13.2480    1.0000 </r>
       <r>  -11.6726    1.0000 </r>
       <r>  -10.9398    1.0000 </r>
       <r>   -5.7611    1.0000 </r>
       <r>   -4.8397    1.0000 </r>
       <r>   -0.7906    0.0000 </r>
       <r>    0.2611    0.0000 </r>
       <r>    5.9850    0.0000 </r>
       <r>    6.7169    0.0000 </r>
      </set>
      <set comment="kpoint 225">
       <r>  -18.0694    1.0000 </r>
       <r>  -17.1625    1.0000 </r>
       <r>  -14.3238    1.0000 </r>
       <r>  -13.4743    1.0000 </r>
       <r>  -11.4191    1.0000 </r>
       <r>  -10.7160    1.0000 </r>
       <r>   -5.7273    1.0000 </r>
       <r>   -4.8335    1.0000 </r>
       <r>   -0.8476    0.0000 </r>
       <r>    0.1678    0.0000 </r>
       <r>    6.0452    0.0000 </r>
       <r>    6.5320    0.0000 </r>
      </set>
      <set comment="kpoint 226">
       <r>  -18.0072    1.0000 </r>
       <r>  -17.1075    1.0000 </r>
       <r>  -14.5831    1.0000 </r>
       <r>  -13.7318    1.0000 </r>
       <r>  -11.1302    1.0000 </r>
       <r>  -10.4659    1.0000 </r>
       <r>   -5.6810    1.0000 </r>
       <r>   -4.8272    1.0000 </r>
       <r>   -0.9183    0.0000 </r>
       <r>    0.0460    0.0000 </r>
       <r>    5.9555    0.0000 </r>
       <r>    6.1640    0.0000 </r>
      </set>
      <set comment="kpoint 227">
       <r>  -17.9278    1.0000 </r>
       <r>  -17.0393    1.0000 </r>
       <r>  -14.8503    1.0000 </r>
       <r>  -14.0021    1.0000 </r>
       <r>  -10.8281    1.0000 </r>
       <r>  -10.2119    1.0000 </r>
       <r>   -5.6231    1.0000 </r>
       <r>   -4.8231    1.0000 </r>
       <r>   -0.9950    0.0000 </r>
       <r>   -0.0970    0.0000 </r>
       <r>    5.4632    0.0000 </r>
       <r>    6.0570    0.0000 </r>
      </set>
      <set comment="kpoint 228">
       <r>  -17.8315    1.0000 </r>
       <r>  -16.9608    1.0000 </r>
       <r>  -15.1120    1.0000 </r>
       <r>  -14.2741    1.0000 </r>
       <r>  -10.5279    1.0000 </r>
       <r>   -9.9696    1.0000 </r>
       <r>   -5.5550    1.0000 </r>
       <r>   -4.8239    1.0000 </r>
       <r>   -1.0692    0.0000 </r>
       <r>   -0.2537    0.0000 </r>
       <r>    5.0072    0.0000 </r>
       <r>    5.5507    0.0000 </r>
      </set>
      <set comment="kpoint 229">
       <r>  -17.7192    1.0000 </r>
       <r>  -16.8777    1.0000 </r>
       <r>  -15.3566    1.0000 </r>
       <r>  -14.5413    1.0000 </r>
       <r>  -10.2410    1.0000 </r>
       <r>   -9.7514    1.0000 </r>
       <r>   -5.4785    1.0000 </r>
       <r>   -4.8325    1.0000 </r>
       <r>   -1.1326    0.0000 </r>
       <r>   -0.4163    0.0000 </r>
       <r>    4.6091    0.0000 </r>
       <r>    5.0897    0.0000 </r>
      </set>
      <set comment="kpoint 230">
       <r>  -17.5917    1.0000 </r>
       <r>  -16.8014    1.0000 </r>
       <r>  -15.5688    1.0000 </r>
       <r>  -14.7986    1.0000 </r>
       <r>   -9.9777    1.0000 </r>
       <r>   -9.5677    1.0000 </r>
       <r>   -5.3956    1.0000 </r>
       <r>   -4.8515    1.0000 </r>
       <r>   -1.1779    0.0000 </r>
       <r>   -0.5777    0.0000 </r>
       <r>    4.2787    0.0000 </r>
       <r>    4.6835    0.0000 </r>
      </set>
      <set comment="kpoint 231">
       <r>  -17.4506    1.0000 </r>
       <r>  -16.7536    1.0000 </r>
       <r>  -15.7246    1.0000 </r>
       <r>  -15.0422    1.0000 </r>
       <r>   -9.7471    1.0000 </r>
       <r>   -9.4277    1.0000 </r>
       <r>   -5.3089    1.0000 </r>
       <r>   -4.8832    1.0000 </r>
       <r>   -1.1989    0.0000 </r>
       <r>   -0.7312    0.0000 </r>
       <r>    4.0248    0.0000 </r>
       <r>    4.3416    0.0000 </r>
      </set>
      <set comment="kpoint 232">
       <r>  -17.2987    1.0000 </r>
       <r>  -16.7657    1.0000 </r>
       <r>  -15.7912    1.0000 </r>
       <r>  -15.2678    1.0000 </r>
       <r>   -9.5580    1.0000 </r>
       <r>   -9.3388    1.0000 </r>
       <r>   -5.2213    1.0000 </r>
       <r>   -4.9284    1.0000 </r>
       <r>   -1.1914    0.0000 </r>
       <r>   -0.8706    0.0000 </r>
       <r>    3.8547    0.0000 </r>
       <r>    4.0727    0.0000 </r>
      </set>
      <set comment="kpoint 233">
       <r>  -17.1405    1.0000 </r>
       <r>  -16.8505    1.0000 </r>
       <r>  -15.7548    1.0000 </r>
       <r>  -15.4696    1.0000 </r>
       <r>   -9.4180    1.0000 </r>
       <r>   -9.3063    1.0000 </r>
       <r>   -5.1363    1.0000 </r>
       <r>   -4.9869    1.0000 </r>
       <r>   -1.1538    0.0000 </r>
       <r>   -0.9905    0.0000 </r>
       <r>    3.7736    0.0000 </r>
       <r>    3.8847    0.0000 </r>
      </set>
      <set comment="kpoint 234">
       <r>  -16.9852    1.0000 </r>
       <r>  -16.9852    1.0000 </r>
       <r>  -15.6379    1.0000 </r>
       <r>  -15.6379    1.0000 </r>
       <r>   -9.3329    1.0000 </r>
       <r>   -9.3329    1.0000 </r>
       <r>   -5.0570    1.0000 </r>
       <r>   -5.0570    1.0000 </r>
       <r>   -1.0860    0.0000 </r>
       <r>   -1.0860    0.0000 </r>
       <r>    3.7838    0.0000 </r>
       <r>    3.7838    0.0000 </r>
      </set>
      <set comment="kpoint 235">
       <r>  -17.7007    1.0000 </r>
       <r>  -17.7007    1.0000 </r>
       <r>  -13.4510    1.0000 </r>
       <r>  -13.4510    1.0000 </r>
       <r>  -11.5545    1.0000 </r>
       <r>  -11.5545    1.0000 </r>
       <r>   -5.3196    1.0000 </r>
       <r>   -5.3196    1.0000 </r>
       <r>   -0.2108    0.0000 </r>
       <r>   -0.2108    0.0000 </r>
       <r>    6.5744    0.0000 </r>
       <r>    6.5744    0.0000 </r>
      </set>
      <set comment="kpoint 236">
       <r>  -17.6920    1.0000 </r>
       <r>  -17.6920    1.0000 </r>
       <r>  -13.5144    1.0000 </r>
       <r>  -13.5144    1.0000 </r>
       <r>  -11.4887    1.0000 </r>
       <r>  -11.4887    1.0000 </r>
       <r>   -5.3147    1.0000 </r>
       <r>   -5.3147    1.0000 </r>
       <r>   -0.2280    0.0000 </r>
       <r>   -0.2280    0.0000 </r>
       <r>    6.5869    0.0000 </r>
       <r>    6.5869    0.0000 </r>
      </set>
      <set comment="kpoint 237">
       <r>  -17.6660    1.0000 </r>
       <r>  -17.6660    1.0000 </r>
       <r>  -13.6819    1.0000 </r>
       <r>  -13.6819    1.0000 </r>
       <r>  -11.3142    1.0000 </r>
       <r>  -11.3142    1.0000 </r>
       <r>   -5.3003    1.0000 </r>
       <r>   -5.3003    1.0000 </r>
       <r>   -0.2780    0.0000 </r>
       <r>   -0.2780    0.0000 </r>
       <r>    6.6240    0.0000 </r>
       <r>    6.6240    0.0000 </r>
      </set>
      <set comment="kpoint 238">
       <r>  -17.6229    1.0000 </r>
       <r>  -17.6229    1.0000 </r>
       <r>  -13.9117    1.0000 </r>
       <r>  -13.9117    1.0000 </r>
       <r>  -11.0743    1.0000 </r>
       <r>  -11.0743    1.0000 </r>
       <r>   -5.2770    1.0000 </r>
       <r>   -5.2770    1.0000 </r>
       <r>   -0.3569    0.0000 </r>
       <r>   -0.3569    0.0000 </r>
       <r>    6.6727    0.0000 </r>
       <r>    6.6733    0.0000 </r>
      </set>
      <set comment="kpoint 239">
       <r>  -17.5630    1.0000 </r>
       <r>  -17.5630    1.0000 </r>
       <r>  -14.1718    1.0000 </r>
       <r>  -14.1718    1.0000 </r>
       <r>  -10.8035    1.0000 </r>
       <r>  -10.8035    1.0000 </r>
       <r>   -5.2460    1.0000 </r>
       <r>   -5.2460    1.0000 </r>
       <r>   -0.4585    0.0000 </r>
       <r>   -0.4585    0.0000 </r>
       <r>    6.2703    0.0000 </r>
       <r>    6.2703    0.0000 </r>
      </set>
      <set comment="kpoint 240">
       <r>  -17.4871    1.0000 </r>
       <r>  -17.4871    1.0000 </r>
       <r>  -14.4431    1.0000 </r>
       <r>  -14.4431    1.0000 </r>
       <r>  -10.5239    1.0000 </r>
       <r>  -10.5239    1.0000 </r>
       <r>   -5.2088    1.0000 </r>
       <r>   -5.2088    1.0000 </r>
       <r>   -0.5752    0.0000 </r>
       <r>   -0.5752    0.0000 </r>
       <r>    5.7457    0.0000 </r>
       <r>    5.7457    0.0000 </r>
      </set>
      <set comment="kpoint 241">
       <r>  -17.3959    1.0000 </r>
       <r>  -17.3959    1.0000 </r>
       <r>  -14.7140    1.0000 </r>
       <r>  -14.7140    1.0000 </r>
       <r>  -10.2509    1.0000 </r>
       <r>  -10.2509    1.0000 </r>
       <r>   -5.1675    1.0000 </r>
       <r>   -5.1675    1.0000 </r>
       <r>   -0.6989    0.0000 </r>
       <r>   -0.6989    0.0000 </r>
       <r>    5.2616    0.0000 </r>
       <r>    5.2616    0.0000 </r>
      </set>
      <set comment="kpoint 242">
       <r>  -17.2913    1.0000 </r>
       <r>  -17.2913    1.0000 </r>
       <r>  -14.9770    1.0000 </r>
       <r>  -14.9770    1.0000 </r>
       <r>   -9.9965    1.0000 </r>
       <r>   -9.9965    1.0000 </r>
       <r>   -5.1246    1.0000 </r>
       <r>   -5.1246    1.0000 </r>
       <r>   -0.8215    0.0000 </r>
       <r>   -0.8215    0.0000 </r>
       <r>    4.8294    0.0000 </r>
       <r>    4.8294    0.0000 </r>
      </set>
      <set comment="kpoint 243">
       <r>  -17.1759    1.0000 </r>
       <r>  -17.1759    1.0000 </r>
       <r>  -15.2255    1.0000 </r>
       <r>  -15.2255    1.0000 </r>
       <r>   -9.7710    1.0000 </r>
       <r>   -9.7710    1.0000 </r>
       <r>   -5.0830    1.0000 </r>
       <r>   -5.0830    1.0000 </r>
       <r>   -0.9350    0.0000 </r>
       <r>   -0.9350    0.0000 </r>
       <r>    4.4587    0.0000 </r>
       <r>    4.4587    0.0000 </r>
      </set>
      <set comment="kpoint 244">
       <r>  -17.0549    1.0000 </r>
       <r>  -17.0549    1.0000 </r>
       <r>  -15.4519    1.0000 </r>
       <r>  -15.4519    1.0000 </r>
       <r>   -9.5839    1.0000 </r>
       <r>   -9.5839    1.0000 </r>
       <r>   -5.0460    1.0000 </r>
       <r>   -5.0460    1.0000 </r>
       <r>   -1.0321    0.0000 </r>
       <r>   -1.0321    0.0000 </r>
       <r>    4.1587    0.0000 </r>
       <r>    4.1587    0.0000 </r>
      </set>
      <set comment="kpoint 245">
       <r>  -16.9385    1.0000 </r>
       <r>  -16.9385    1.0000 </r>
       <r>  -15.6445    1.0000 </r>
       <r>  -15.6445    1.0000 </r>
       <r>   -9.4434    1.0000 </r>
       <r>   -9.4434    1.0000 </r>
       <r>   -5.0167    1.0000 </r>
       <r>   -5.0167    1.0000 </r>
       <r>   -1.1066    0.0000 </r>
       <r>   -1.1066    0.0000 </r>
       <r>    3.9374    0.0000 </r>
       <r>    3.9374    0.0000 </r>
      </set>
      <set comment="kpoint 246">
       <r>  -16.8465    1.0000 </r>
       <r>  -16.8465    1.0000 </r>
       <r>  -15.7826    1.0000 </r>
       <r>  -15.7826    1.0000 </r>
       <r>   -9.3561    1.0000 </r>
       <r>   -9.3561    1.0000 </r>
       <r>   -4.9979    1.0000 </r>
       <r>   -4.9979    1.0000 </r>
       <r>   -1.1534    0.0000 </r>
       <r>   -1.1534    0.0000 </r>
       <r>    3.8017    0.0000 </r>
       <r>    3.8017    0.0000 </r>
      </set>
      <set comment="kpoint 247">
       <r>  -16.8096    1.0000 </r>
       <r>  -16.8096    1.0000 </r>
       <r>  -15.8348    1.0000 </r>
       <r>  -15.8348    1.0000 </r>
       <r>   -9.3266    1.0000 </r>
       <r>   -9.3266    1.0000 </r>
       <r>   -4.9914    1.0000 </r>
       <r>   -4.9914    1.0000 </r>
       <r>   -1.1693    0.0000 </r>
       <r>   -1.1693    0.0000 </r>
       <r>    3.7559    0.0000 </r>
       <r>    3.7559    0.0000 </r>
      </set>
     </set>
    </set>
   </array>
  </eigenvalues>
  <separator name="orbital magnetization" >
   <v name="MAGDIPOLOUT">      0.00000000      0.00000000      0.00000000</v>
  </separator>
 </calculation>
 <structure name="finalpos" >
  <crystal>
   <varray name="basis" >
    <v>       4.40189274       0.00000000       0.00000000 </v>
    <v>       0.00000000       2.45540051       0.00000000 </v>
    <v>       0.00000000       0.00000000      19.50683843 </v>
   </varray>
   <i name="volume">    210.83790140 </i>
   <varray name="rec_basis" >
    <v>       0.22717500       0.00000000       0.00000000 </v>
    <v>       0.00000000       0.40726553       0.00000000 </v>
    <v>       0.00000000       0.00000000       0.05126407 </v>
   </varray>
  </crystal>
  <varray name="positions" >
   <v>       0.99938978      -0.00000000      -0.00000000 </v>
   <v>       0.16727689       0.50000000       0.00000000 </v>
   <v>       0.49938978       0.50000000      -0.00000000 </v>
   <v>       0.66727689      -0.00000000       0.00000000 </v>
  </varray>
 </structure>
</modeling>
