gr                                      
           1
     4.401893    0.000000    0.000000
     0.000000    2.455401    0.000000
     0.000000    0.000000   19.506838
   C 
   4
Direct configuration=     1
   0.99938979  0.00000000  0.00000000
   0.16727688  0.50000000  0.00000000
   0.49938979  0.50000000  0.00000000
   0.66727688  0.00000000  0.00000000
Direct configuration=     2
   0.99938973 -0.00000000  0.00000000
   0.16727693  0.50000000  0.00000000
   0.49938973  0.50000000  0.00000000
   0.66727693 -0.00000000  0.00000000
Direct configuration=     3
   0.99938977 -0.00000000 -0.00000000
   0.16727689  0.50000000  0.00000000
   0.49938977  0.50000000 -0.00000000
   0.66727689 -0.00000000  0.00000000
Direct configuration=     4
   0.99938979 -0.00000000  0.00000000
   0.16727688  0.50000000 -0.00000000
   0.49938979  0.50000000  0.00000000
   0.66727688 -0.00000000 -0.00000000
Direct configuration=     5
   0.99938978 -0.00000000 -0.00000000
   0.16727689  0.50000000  0.00000000
   0.49938978  0.50000000 -0.00000000
   0.66727689 -0.00000000  0.00000000
