    4    4  400    1
  0.5270948E+02  0.4315992E-09  0.2462854E-09  0.1983487E-08  0.5000000E-15
  1.000000000000000E-004
  CAR 
 gr                                      
     16    247     12
 
  0.0000000E+00  0.0000000E+00  0.0000000E+00  0.1157407E-02
    1      -22.184615
    2      -17.119221
    3      -15.919213
    4      -10.305623
    5       -9.013319
    6       -5.877315
    7       -5.761230
    8       -5.202939
    9       -1.121652
   10        0.532098
   11        1.332056
   12        1.719131
 
  0.4166667E-01  0.0000000E+00  0.0000000E+00  0.2314815E-02
    1      -22.174566
    2      -17.262737
    3      -15.760545
    4      -10.293650
    5       -9.003433
    6       -5.920706
    7       -5.782773
    8       -5.266217
    9       -1.042476
   10        0.545714
   11        1.345858
   12        1.733102
 
  0.8333333E-01  0.0000000E+00  0.0000000E+00  0.2314815E-02
    1      -22.144422
    2      -17.573103
    3      -15.404803
    4      -10.257748
    5       -8.973827
    6       -6.048977
    7       -5.846240
    8       -5.442415
    9       -0.818752
   10        0.586565
   11        1.387259
   12        1.775016
 
  0.1250000E+00  0.0000000E+00  0.0000000E+00  0.2314815E-02
    1      -22.094204
    2      -17.931190
    3      -14.971363
    4      -10.197975
    5       -8.924654
    6       -6.256768
    7       -5.948333
    8       -5.700780
    9       -0.481728
   10        0.654663
   11        1.456247
   12        1.844875
 
  0.1666667E+00  0.0000000E+00  0.0000000E+00  0.2314815E-02
    1      -22.023946
    2      -18.296817
    3      -14.500826
    4      -10.114429
    5       -8.856175
    6       -6.536147
    7       -6.084121
    8       -6.010184
    9       -0.063376
   10        0.750018
   11        1.552797
   12        1.942682
 
  0.2083333E+00  0.0000000E+00  0.0000000E+00  0.2314815E-02
    1      -21.933699
    2      -18.656423
    3      -14.007361
    4      -10.007251
    5       -8.768767
    6       -6.877732
    7       -6.346965
    8       -6.247697
    9        0.411429
   10        0.872636
   11        1.676872
   12        2.068438
 
  0.2500000E+00  0.0000000E+00  0.0000000E+00  0.2314815E-02
    1      -21.823523
    2      -19.004392
    3      -13.497383
    4       -9.876631
    5       -8.662933
    6       -7.271707
    7       -6.695079
    8       -6.432798
    9        0.925016
   10        1.022511
   11        1.828417
   12        2.222143
 
  0.2916667E+00  0.0000000E+00  0.0000000E+00  0.2314815E-02
    1      -21.693502
    2      -19.337951
    3      -12.974693
    4       -9.722815
    5       -8.539323
    6       -7.708584
    7       -7.043985
    8       -6.633299
    9        1.199621
   10        1.464712
   11        2.007342
   12        2.403795
 
  0.3333333E+00  0.0000000E+00  0.0000000E+00  0.2314815E-02
    1      -21.543735
    2      -19.655521
    3      -12.442145
    4       -9.546115
    5       -8.398749
    6       -8.179655
    7       -7.386708
    8       -6.843529
    9        1.403933
   10        2.020656
   11        2.213504
   12        2.613390
 
  0.3750000E+00  0.0000000E+00  0.0000000E+00  0.2314815E-02
    1      -21.374337
    2      -19.956106
    3      -11.902305
    4       -9.346923
    5       -8.677192
    6       -8.242215
    7       -7.718525
    8       -7.058435
    9        1.635396
   10        2.446641
   11        2.583558
   12        2.850918
 
  0.4166667E+00  0.0000000E+00  0.0000000E+00  0.2314815E-02
    1      -21.185452
    2      -20.239017
    3      -11.357762
    4       -9.194484
    5       -9.125731
    6       -8.070950
    7       -8.036145
    8       -7.273632
    9        1.893942
   10        2.706201
   11        3.116369
   12        3.137798
 
  0.4583333E+00  0.0000000E+00  0.0000000E+00  0.2314815E-02
    1      -20.977248
    2      -20.503754
    3      -10.811314
    4       -9.725764
    5       -8.883156
    6       -8.337209
    7       -7.886451
    8       -7.485381
    9        2.179479
   10        2.830959
   11        2.990670
   12        3.409724
 
  0.5000000E+00  0.0000000E+00  0.0000000E+00  0.1157407E-02
    1      -20.749932
    2      -20.749932
    3      -10.266110
    4      -10.266110
    5       -8.619981
    6       -8.619981
    7       -7.690531
    8       -7.690531
    9        2.491880
   10        2.491880
   11        3.293509
   12        3.293509
 
  0.0000000E+00  0.2777778E-01  0.0000000E+00  0.2314815E-02
    1      -22.170881
    2      -17.107381
    3      -15.907540
    4      -10.289259
    5       -9.075622
    6       -5.905816
    7       -5.818977
    8       -5.186281
    9       -1.124962
   10        0.550721
   11        1.350899
   12        1.738205
 
  0.4166667E-01  0.2777778E-01  0.0000000E+00  0.4629630E-02
    1      -22.160832
    2      -17.250749
    3      -15.749067
    4      -10.277290
    5       -9.065722
    6       -5.952645
    7       -5.836437
    8       -5.249692
    9       -1.045766
   10        0.564337
   11        1.364700
   12        1.752176
 
  0.8333333E-01  0.2777778E-01  0.0000000E+00  0.4629630E-02
    1      -22.130693
    2      -17.560871
    3      -15.393717
    4      -10.241400
    5       -9.036072
    6       -6.084456
    7       -5.894543
    8       -5.426196
    9       -0.822070
   10        0.605189
   11        1.406099
   12        1.794091
 
  0.1250000E+00  0.2777778E-01  0.0000000E+00  0.4629630E-02
    1      -22.080483
    2      -17.918735
    3      -14.960749
    4      -10.181648
    5       -8.986822
    6       -6.292031
    7       -5.994160
    8       -5.684882
    9       -0.485285
   10        0.673289
   11        1.475082
   12        1.863951
 
  0.1666667E+00  0.2777778E-01  0.0000000E+00  0.4629630E-02
    1      -22.010236
    2      -18.284171
    3      -14.490764
    4      -10.098130
    5       -8.918227
    6       -6.568386
    7       -6.129786
    8       -5.994528
    9       -0.067476
   10        0.768648
   11        1.571627
   12        1.961759
 
  0.2083333E+00  0.2777778E-01  0.0000000E+00  0.4629630E-02
    1      -21.920003
    2      -18.643613
    3      -13.997945
    4       -9.990988
    5       -8.830658
    6       -6.905486
    7       -6.331454
    8       -6.294512
    9        0.406462
   10        0.891272
   11        1.695697
   12        2.087516
 
  0.2500000E+00  0.2777778E-01  0.0000000E+00  0.4629630E-02
    1      -21.809845
    2      -18.991443
    3      -13.488729
    4       -9.860413
    5       -8.724608
    6       -7.294464
    7       -6.679630
    8       -6.481383
    9        0.918879
   10        1.041154
   11        1.847234
   12        2.241223
 
  0.2916667E+00  0.2777778E-01  0.0000000E+00  0.4629630E-02
    1      -21.679847
    2      -19.324881
    3      -12.966941
    4       -9.706649
    5       -8.600713
    6       -7.726406
    7       -7.028538
    8       -6.683858
    9        1.218274
   10        1.457143
   11        2.026153
   12        2.422878
 
  0.3333333E+00  0.2777778E-01  0.0000000E+00  0.4629630E-02
    1      -21.530105
    2      -19.642347
    3      -12.435464
    4       -9.530009
    5       -8.459770
    6       -8.192909
    7       -7.371223
    8       -6.896026
    9        1.422597
   10        2.011469
   11        2.232311
   12        2.632476
 
  0.3750000E+00  0.2777778E-01  0.0000000E+00  0.4629630E-02
    1      -21.360740
    2      -19.942842
    3      -11.896898
    4       -9.330885
    5       -8.686379
    6       -8.302764
    7       -7.702976
    8       -7.112712
    9        1.654072
   10        2.465451
   11        2.572768
   12        2.870009
 
  0.4166667E+00  0.2777778E-01  0.0000000E+00  0.4629630E-02
    1      -21.171891
    2      -20.225676
    3      -11.353873
    4       -9.200139
    5       -9.109768
    6       -8.130904
    7       -8.020517
    8       -7.329473
    9        1.912632
   10        2.725024
   11        3.126505
   12        3.135466
 
  0.4583333E+00  0.2777778E-01  0.0000000E+00  0.4629630E-02
    1      -20.963731
    2      -20.490344
    3      -10.809235
    4       -9.728399
    5       -8.867273
    6       -8.321497
    7       -7.945662
    8       -7.542559
    9        2.198187
   10        2.849732
   11        3.009521
   12        3.428828
 
  0.5000000E+00  0.2777778E-01  0.0000000E+00  0.2314815E-02
    1      -20.736465
    2      -20.736465
    3      -10.266186
    4      -10.266186
    5       -8.604182
    6       -8.604182
    7       -7.748825
    8       -7.748825
    9        2.510613
   10        2.510613
   11        3.312241
   12        3.312241
 
  0.0000000E+00  0.5555556E-01  0.0000000E+00  0.2314815E-02
    1      -22.129687
    2      -17.071863
    3      -15.872667
    4      -10.240201
    5       -9.257520
    6       -5.990736
    7       -5.987558
    8       -5.136329
    9       -1.135713
   10        0.606591
   11        1.407420
   12        1.795429
 
  0.4166667E-01  0.5555556E-01  0.0000000E+00  0.4629630E-02
    1      -22.119642
    2      -17.214799
    3      -15.714775
    4      -10.228244
    5       -9.247572
    6       -6.064776
    7       -5.975912
    8       -5.200148
    9       -1.056448
   10        0.620207
   11        1.421218
   12        1.809400
 
  0.8333333E-01  0.5555556E-01  0.0000000E+00  0.4629630E-02
    1      -22.089517
    2      -17.524192
    3      -15.360604
    4      -10.192392
    5       -9.217775
    6       -6.204842
    7       -6.020410
    8       -5.377595
    9       -0.832832
   10        0.661061
   11        1.462610
   12        1.851315
 
  0.1250000E+00  0.5555556E-01  0.0000000E+00  0.4629630E-02
    1      -22.039329
    2      -17.881391
    3      -14.929070
    4      -10.132701
    5       -9.168269
    6       -6.408987
    7       -6.115500
    8       -5.637265
    9       -0.496772
   10        0.729164
   11        1.531581
   12        1.921177
 
  0.1666667E+00  0.5555556E-01  0.0000000E+00  0.4629630E-02
    1      -21.969116
    2      -18.246255
    3      -14.460768
    4      -10.049269
    5       -9.099293
    6       -6.674510
    7       -6.252496
    8       -5.947651
    9       -0.080623
   10        0.824532
   11        1.628109
   12        2.018986
 
  0.2083333E+00  0.5555556E-01  0.0000000E+00  0.4629630E-02
    1      -21.878926
    2      -18.605206
    3      -13.969932
    4       -9.942239
    5       -9.011191
    6       -6.996698
    7       -6.422190
    8       -6.285015
    9        0.390664
   10        0.947169
   11        1.752159
   12        2.144747
 
  0.2500000E+00  0.5555556E-01  0.0000000E+00  0.4629630E-02
    1      -21.768823
    2      -18.952614
    3      -13.463060
    4       -9.811799
    5       -8.904426
    6       -7.369290
    7       -6.633376
    8       -6.615796
    9        0.899503
   10        1.097069
   11        1.903675
   12        2.298460
 
  0.2916667E+00  0.5555556E-01  0.0000000E+00  0.4629630E-02
    1      -21.638892
    2      -19.285689
    3      -12.944056
    4       -9.658196
    5       -8.779590
    6       -7.785121
    7       -6.982286
    8       -6.825488
    9        1.274212
   10        1.433383
   11        2.082573
   12        2.480122
 
  0.3333333E+00  0.5555556E-01  0.0000000E+00  0.4629630E-02
    1      -21.489231
    2      -19.602842
    3      -12.415896
    4       -9.481740
    5       -8.637428
    6       -8.236778
    7       -7.324850
    8       -7.044589
    9        1.478561
   10        1.982729
   11        2.288719
   12        2.689729
 
  0.3750000E+00  0.5555556E-01  0.0000000E+00  0.4629630E-02
    1      -21.319960
    2      -19.903065
    3      -11.881293
    4       -9.282822
    5       -8.717105
    6       -8.478862
    7       -7.656406
    8       -7.267523
    9        1.710066
   10        2.521864
   11        2.538984
   12        2.927274
 
  0.4166667E+00  0.5555556E-01  0.0000000E+00  0.4629630E-02
    1      -21.131222
    2      -20.185665
    3      -11.343010
    4       -9.219517
    5       -9.061931
    6       -8.305026
    7       -7.973708
    8       -7.489697
    9        1.968661
   10        2.781481
   11        3.090257
   12        3.192748
 
  0.4583333E+00  0.5555556E-01  0.0000000E+00  0.4629630E-02
    1      -20.923191
    2      -20.450132
    3      -10.804052
    4       -9.738133
    5       -8.819682
    6       -8.274428
    7       -8.117304
    8       -7.707347
    9        2.254256
   10        2.905944
   11        3.066067
   12        3.487044
 
  0.5000000E+00  0.5555556E-01  0.0000000E+00  0.2314815E-02
    1      -20.696077
    2      -20.696077
    3      -10.267801
    4      -10.267801
    5       -8.556849
    6       -8.556849
    7       -7.917390
    8       -7.917390
    9        2.566738
   10        2.566738
   11        3.368368
   12        3.368368
 
  0.0000000E+00  0.8333333E-01  0.0000000E+00  0.2314815E-02
    1      -22.061069
    2      -17.012679
    3      -15.815063
    4      -10.158553
    5       -9.545378
    6       -6.254420
    7       -6.130338
    8       -5.053145
    9       -1.156370
   10        0.699714
   11        1.501597
   12        1.890805
 
  0.4166667E-01  0.8333333E-01  0.0000000E+00  0.4629630E-02
    1      -22.051032
    2      -17.154923
    3      -15.658125
    4      -10.146617
    5       -9.535334
    6       -6.306380
    7       -6.137745
    8       -5.117685
    9       -1.076971
   10        0.713329
   11        1.515391
   12        1.904776
 
  0.8333333E-01  0.8333333E-01  0.0000000E+00  0.4629630E-02
    1      -22.020929
    2      -17.463126
    3      -15.305934
    4      -10.110828
    5       -9.505242
    6       -6.438990
    7       -6.181109
    8       -5.296789
    9       -0.853459
   10        0.754180
   11        1.556768
   12        1.946691
 
  0.1250000E+00  0.8333333E-01  0.0000000E+00  0.4629630E-02
    1      -21.970781
    2      -17.819221
    3      -14.876853
    4      -10.051243
    5       -9.455223
    6       -6.632205
    7       -6.274281
    8       -5.558172
    9       -0.518629
   10        0.822282
   11        1.625717
   12        2.016552
 
  0.1666667E+00  0.8333333E-01  0.0000000E+00  0.4629630E-02
    1      -21.900622
    2      -18.183129
    3      -14.411464
    4       -9.967960
    5       -9.385484
    6       -6.878799
    7       -6.414788
    8       -5.869832
    9       -0.105339
   10        0.917652
   11        1.722215
   12        2.114364
 
  0.2083333E+00  0.8333333E-01  0.0000000E+00  0.4629630E-02
    1      -21.810505
    2      -18.541259
    3      -13.924087
    4       -9.861120
    5       -9.296320
    6       -7.174991
    7       -6.594133
    8       -6.207942
    9        0.361373
   10        1.040298
   11        1.846226
   12        2.240128
 
  0.2500000E+00  0.8333333E-01  0.0000000E+00  0.4629630E-02
    1      -21.700495
    2      -18.887960
    3      -13.421338
    4       -9.730913
    5       -9.188126
    6       -7.517628
    7       -6.801694
    8       -6.556608
    9        0.864034
   10        1.190214
   11        1.997700
   12        2.393847
 
  0.2916667E+00  0.8333333E-01  0.0000000E+00  0.4629630E-02
    1      -21.570675
    2      -19.220426
    3      -12.907267
    4       -9.577584
    5       -9.061408
    6       -7.902906
    7       -7.027107
    8       -6.905508
    9        1.367380
   10        1.390331
   11        2.176559
   12        2.575517
 
  0.3333333E+00  0.8333333E-01  0.0000000E+00  0.4629630E-02
    1      -21.421147
    2      -19.537053
    3      -12.385034
    4       -9.401444
    5       -8.916802
    6       -8.325887
    7       -7.261617
    8       -7.247852
    9        1.571756
   10        1.930997
   11        2.382676
   12        2.785136
 
  0.3750000E+00  0.8333333E-01  0.0000000E+00  0.4629630E-02
    1      -21.252034
    2      -19.836822
    3      -11.857573
    4       -9.202882
    5       -8.780732
    6       -8.755091
    7       -7.579059
    8       -7.498445
    9        1.803292
   10        2.478163
   11        2.615827
   12        3.022697
 
  0.4166667E+00  0.8333333E-01  0.0000000E+00  0.4629630E-02
    1      -21.063482
    2      -20.119030
    3      -11.327922
    4       -9.261262
    5       -8.982383
    6       -8.577236
    7       -7.895941
    8       -7.732514
    9        2.061920
   10        2.875519
   11        3.022836
   12        3.288190
 
  0.4583333E+00  0.8333333E-01  0.0000000E+00  0.4629630E-02
    1      -20.855669
    2      -20.383157
    3      -10.799417
    4       -9.761471
    5       -8.740556
    6       -8.384416
    7       -8.196208
    8       -7.960025
    9        2.347552
   10        2.999360
   11        3.160282
   12        3.532429
 
  0.5000000E+00  0.8333333E-01  0.0000000E+00  0.2314815E-02
    1      -20.628808
    2      -20.628808
    3      -10.275829
    4      -10.275829
    5       -8.478171
    6       -8.478171
    7       -8.178080
    8       -8.178080
    9        2.660080
   10        2.660080
   11        3.461571
   12        3.461571
 
  0.0000000E+00  0.1111111E+00  0.0000000E+00  0.2314815E-02
    1      -21.965087
    2      -16.929851
    3      -15.735607
    4      -10.044491
    5       -9.920229
    6       -6.602449
    7       -6.321785
    8       -4.936835
    9       -1.191022
   10        0.830096
   11        1.633392
   12        2.024334
 
  0.4166667E-01  0.1111111E+00  0.0000000E+00  0.4629630E-02
    1      -21.955061
    2      -17.071184
    3      -15.579976
    4      -10.032586
    5       -9.910015
    6       -6.649646
    7       -6.329985
    8       -5.002480
    9       -1.111379
   10        0.843707
   11        1.647178
   12        2.038304
 
  0.8333333E-01  0.1111111E+00  0.0000000E+00  0.4629630E-02
    1      -21.924991
    2      -17.377776
    3      -15.230602
    4       -9.996889
    5       -9.879400
    6       -6.776380
    7       -6.367890
    8       -5.184101
    9       -0.887933
   10        0.884547
   11        1.688533
   12        2.080218
 
  0.1250000E+00  0.1111111E+00  0.0000000E+00  0.4629630E-02
    1      -21.874897
    2      -17.732341
    3      -14.805115
    4       -9.937459
    5       -9.828470
    6       -6.961334
    7       -6.452194
    8       -5.448049
    9       -0.554851
   10        0.952634
   11        1.757445
   12        2.150077
 
  0.1666667E+00  0.1111111E+00  0.0000000E+00  0.4629630E-02
    1      -21.804816
    2      -18.094908
    3      -14.344073
    4       -9.854392
    5       -9.757371
    6       -7.192037
    7       -6.587781
    8       -5.761582
    9       -0.145735
   10        1.047989
   11        1.853891
   12        2.247888
 
  0.2083333E+00  0.1111111E+00  0.0000000E+00  0.4629630E-02
    1      -21.714801
    2      -18.451876
    3      -13.861930
    4       -9.747831
    5       -9.666307
    6       -7.462154
    7       -6.770840
    8       -6.100762
    9        0.314271
   10        1.170624
   11        1.977839
   12        2.373654
 
  0.2500000E+00  0.1111111E+00  0.0000000E+00  0.4629630E-02
    1      -21.604920
    2      -18.797578
    3      -13.365503
    4       -9.617965
    5       -9.555546
    6       -7.768935
    7       -6.992109
    8       -6.449844
    9        0.807876
   10        1.320539
   11        2.129240
   12        2.527376
 
  0.2916667E+00  0.1111111E+00  0.0000000E+00  0.4629630E-02
    1      -21.475257
    2      -19.129181
    3      -12.859098
    4       -9.465039
    5       -9.425423
    6       -8.111653
    7       -7.239339
    8       -6.798695
    9        1.323049
   10        1.497710
   11        2.308025
   12        2.709053
 
  0.3333333E+00  0.1111111E+00  0.0000000E+00  0.4629630E-02
    1      -21.325918
    2      -19.445064
    3      -12.346208
    4       -9.289363
    5       -9.276344
    6       -8.489945
    7       -7.499849
    8       -7.140687
    9        1.702098
   10        1.850899
   11        2.514084
   12        2.918682
 
  0.3750000E+00  0.1111111E+00  0.0000000E+00  0.4629630E-02
    1      -21.157027
    2      -19.744190
    3      -11.830191
    4       -9.108796
    5       -9.091323
    6       -8.902238
    7       -7.762819
    8       -7.471360
    9        1.933647
   10        2.384232
   11        2.747223
   12        3.156257
 
  0.4166667E+00  0.1111111E+00  0.0000000E+00  0.4629630E-02
    1      -20.968737
    2      -20.025843
    3      -11.314616
    4       -9.345037
    5       -8.923357
    6       -8.871401
    7       -8.020444
    8       -7.787606
    9        2.192285
   10        2.916214
   11        3.007024
   12        3.421768
 
  0.4583333E+00  0.1111111E+00  0.0000000E+00  0.4629630E-02
    1      -20.761231
    2      -20.289490
    3      -10.803477
    4       -9.813301
    5       -8.720728
    6       -8.630199
    7       -8.267760
    8       -8.087195
    9        2.477925
   10        3.129745
   11        3.292113
   12        3.434182
 
  0.5000000E+00  0.1111111E+00  0.0000000E+00  0.2314815E-02
    1      -20.534727
    2      -20.534727
    3      -10.301323
    4      -10.301323
    5       -8.501794
    6       -8.501794
    7       -8.368476
    8       -8.368476
    9        2.790457
   10        2.790457
   11        3.590292
   12        3.590292
 
  0.0000000E+00  0.1388889E+00  0.0000000E+00  0.2314815E-02
    1      -21.841830
    2      -16.823407
    3      -15.635790
    4      -10.361188
    5       -9.898268
    6       -7.013466
    7       -6.561249
    8       -4.787550
    9       -1.245292
   10        0.997735
   11        1.802747
   12        2.196019
 
  0.4166667E-01  0.1388889E+00  0.0000000E+00  0.4629630E-02
    1      -21.831818
    2      -16.963682
    3      -15.481795
    4      -10.350682
    5       -9.886405
    6       -7.060197
    7       -6.565229
    8       -4.854806
    9       -1.165204
   10        1.011337
   11        1.816521
   12        2.209988
 
  0.8333333E-01  0.1388889E+00  0.0000000E+00  0.4629630E-02
    1      -21.801789
    2      -17.268303
    3      -15.136154
    4      -10.319170
    5       -9.850834
    6       -7.186600
    7       -6.590006
    8       -5.040047
    9       -0.941640
   10        1.052153
   11        1.857840
   12        2.251898
 
  0.1250000E+00  0.1388889E+00  0.0000000E+00  0.4629630E-02
    1      -21.751766
    2      -17.620926
    3      -14.715642
    4      -10.266673
    5       -9.791614
    6       -7.369653
    7       -6.655623
    8       -5.307604
    9       -0.610786
   10        1.120204
   11        1.926691
   12        2.321752
 
  0.1666667E+00  0.1388889E+00  0.0000000E+00  0.4629630E-02
    1      -21.681787
    2      -17.981759
    3      -14.260785
    4      -10.193217
    5       -9.708842
    6       -7.593283
    7       -6.772880
    8       -5.623706
    9       -0.207269
   10        1.215517
   11        2.023053
   12        2.419557
 
  0.2083333E+00  0.1388889E+00  0.0000000E+00  0.4629630E-02
    1      -21.591904
    2      -18.337218
    3      -13.786253
    4      -10.098831
    5       -9.602662
    6       -7.848042
    7       -6.943545
    8       -5.964303
    9        0.243678
   10        1.338111
   11        2.146895
   12        2.545317
 
  0.2500000E+00  0.1388889E+00  0.0000000E+00  0.4629630E-02
    1      -21.482188
    2      -18.681614
    3      -13.299206
    4       -9.983524
    5       -9.473262
    6       -8.128821
    7       -7.162884
    8       -6.313887
    9        0.725059
   10        1.487990
   11        2.298170
   12        2.699038
 
  0.2916667E+00  0.1388889E+00  0.0000000E+00  0.4629630E-02
    1      -21.352729
    2      -19.012090
    3      -12.804429
    4       -9.847271
    5       -9.320887
    6       -8.433762
    7       -7.421373
    8       -6.662605
    9        1.225242
   10        1.665135
   11        2.476817
   12        2.880718
 
  0.3333333E+00  0.1388889E+00  0.0000000E+00  0.4629630E-02
    1      -21.203632
    2      -19.327000
    3      -12.306047
    4       -9.689986
    5       -9.145847
    6       -8.763621
    7       -7.706173
    8       -7.004060
    9        1.735791
   10        1.869503
   11        2.682746
   12        3.090353
 
  0.3750000E+00  0.1388889E+00  0.0000000E+00  0.4629630E-02
    1      -21.035030
    2      -19.625287
    3      -11.808252
    4       -9.511490
    5       -9.120778
    6       -8.948525
    7       -8.002923
    8       -7.333954
    9        2.101033
   10        2.250119
   11        2.915812
   12        3.327937
 
  0.4166667E+00  0.1388889E+00  0.0000000E+00  0.4629630E-02
    1      -20.847081
    2      -19.906215
    3      -11.315672
    4       -9.507507
    5       -9.311505
    6       -8.729398
    7       -8.298082
    8       -7.649295
    9        2.359645
   10        2.762648
   11        3.175726
   12        3.593461
 
  0.4583333E+00  0.1388889E+00  0.0000000E+00  0.4629630E-02
    1      -20.639974
    2      -20.169238
    3      -10.833556
    4       -9.924045
    5       -9.089720
    6       -8.581218
    7       -8.489060
    8       -7.947928
    9        2.645246
   10        3.267781
   11        3.296929
   12        3.461420
 
  0.5000000E+00  0.1388889E+00  0.0000000E+00  0.2314815E-02
    1      -20.413935
    2      -20.413935
    3      -10.367714
    4      -10.367714
    5       -8.846036
    6       -8.846036
    7       -8.228256
    8       -8.228256
    9        2.957721
   10        2.957721
   11        3.718590
   12        3.718592
 
  0.0000000E+00  0.1666667E+00  0.0000000E+00  0.2314815E-02
    1      -21.691414
    2      -16.693387
    3      -15.518108
    4      -10.847624
    5       -9.720223
    6       -7.470617
    7       -6.844062
    8       -4.605489
    9       -1.326076
   10        1.202616
   11        2.009580
   12        2.405862
 
  0.4166667E-01  0.1666667E+00  0.0000000E+00  0.4629630E-02
    1      -21.681419
    2      -16.832564
    3      -15.366061
    4      -10.836617
    5       -9.708415
    6       -7.518296
    7       -6.841944
    8       -4.675074
    9       -1.245164
   10        1.216206
   11        2.023335
   12        2.419829
 
  0.8333333E-01  0.1666667E+00  0.0000000E+00  0.4629630E-02
    1      -21.651442
    2      -17.134952
    3      -15.025255
    4      -10.803558
    5       -9.673010
    6       -7.647191
    7       -6.849332
    8       -4.865439
    9       -1.020987
   10        1.256984
   11        2.064596
   12        2.461732
 
  0.1250000E+00  0.1666667E+00  0.0000000E+00  0.4629630E-02
    1      -21.601506
    2      -17.485239
    3      -14.611592
    4      -10.748334
    5       -9.614067
    6       -7.832301
    7       -6.889802
    8       -5.137943
    9       -0.692684
   10        1.324975
   11        2.133348
   12        2.531575
 
  0.1666667E+00  0.1666667E+00  0.0000000E+00  0.4629630E-02
    1      -21.531650
    2      -17.843937
    3      -14.165585
    4      -10.670729
    5       -9.531683
    6       -8.054980
    7       -6.979017
    8       -5.457436
    9       -0.296232
   10        1.420210
   11        2.229569
   12        2.629366
 
  0.2083333E+00  0.1666667E+00  0.0000000E+00  0.4629630E-02
    1      -21.441930
    2      -18.197515
    3      -13.702292
    4      -10.570389
    5       -9.426004
    6       -8.303632
    7       -7.123495
    8       -5.799807
    9        0.143144
   10        1.542720
   11        2.353225
   12        2.755113
 
  0.2500000E+00  0.1666667E+00  0.0000000E+00  0.4629630E-02
    1      -21.332419
    2      -18.540277
    3      -13.229536
    4      -10.446763
    5       -9.297219
    6       -8.571183
    7       -7.322934
    8       -6.149928
    9        0.608945
   10        1.692515
   11        2.504267
   12        2.908822
 
  0.2916667E+00  0.1666667E+00  0.0000000E+00  0.4629630E-02
    1      -21.203209
    2      -18.869343
    3      -12.753053
    4      -10.299021
    5       -9.145573
    6       -8.853659
    7       -7.571903
    8       -6.498349
    9        1.090130
   10        1.869584
   11        2.682634
   12        3.090495
 
  0.3333333E+00  0.1666667E+00  0.0000000E+00  0.4629630E-02
    1      -21.054413
    2      -19.183036
    3      -12.278258
    4      -10.125964
    5       -9.149666
    6       -8.971376
    7       -7.861026
    8       -6.838987
    9        1.578855
   10        2.073886
   11        2.888243
   12        3.300130
 
  0.3750000E+00  0.1666667E+00  0.0000000E+00  0.4629630E-02
    1      -20.886169
    2      -19.480274
    3      -11.810982
    4       -9.925993
    5       -9.460259
    6       -8.775008
    7       -8.177945
    8       -7.167767
    9        2.069160
   10        2.305352
   11        3.120990
   12        3.537719
 
  0.4166667E+00  0.1666667E+00  0.0000000E+00  0.4629630E-02
    1      -20.698642
    2      -19.760296
    3      -11.357665
    4       -9.788768
    5       -9.697282
    6       -8.556942
    7       -8.508255
    8       -7.481846
    9        2.556235
   10        2.563894
   11        3.380734
   12        3.803251
 
  0.4583333E+00  0.1666667E+00  0.0000000E+00  0.4629630E-02
    1      -20.492030
    2      -20.022541
    3      -10.924915
    4      -10.139973
    5       -9.438460
    6       -8.836850
    7       -8.317763
    8       -7.779167
    9        2.849403
   10        3.035988
   11        3.500789
   12        3.667274
 
  0.5000000E+00  0.1666667E+00  0.0000000E+00  0.2314815E-02
    1      -20.266568
    2      -20.266568
    3      -10.518194
    4      -10.518194
    5       -9.150126
    6       -9.150126
    7       -8.058198
    8       -8.058198
    9        3.161753
   10        3.161753
   11        3.504761
   12        3.504761
 