gr                                      
           1
     4.315992    0.000000    0.000000
     0.000000    2.462854    0.000000
     0.000000    0.000000   19.834873
   C 
   4
Direct configuration=     1
   0.99975412  0.00000000  0.00000000
   0.16691255  0.50000000  0.00000000
   0.49975412  0.50000000  0.00000000
   0.66691255  0.00000000  0.00000000
Direct configuration=     2
   0.99976545 -0.00000000  0.00000000
   0.16690122  0.50000000  0.00000000
   0.49976545  0.50000000  0.00000000
   0.66690122 -0.00000000  0.00000000
Direct configuration=     3
   0.99975641 -0.00000000  0.00000000
   0.16691026  0.50000000  0.00000000
   0.49975641  0.50000000  0.00000000
   0.66691026 -0.00000000  0.00000000
Direct configuration=     4
   0.99975639  0.00000000 -0.00000000
   0.16691028  0.50000000  0.00000000
   0.49975639  0.50000000 -0.00000000
   0.66691028 -0.00000000  0.00000000
Direct configuration=     5
   0.99975640  0.00000000 -0.00000000
   0.16691027  0.50000000  0.00000000
   0.49975640  0.50000000 -0.00000000
   0.66691027 -0.00000000  0.00000000
