
     Program PWSCF v.6.7MaX starts on 10Feb2021 at 11:29:45 

     This program is part of the open-source Quantum ESPRESSO suite
     for quantum simulation of materials; please cite
         "P. Giannozzi et al., J. Phys.:Condens. Matter 21 395502 (2009);
         "P. Giannozzi et al., J. Phys.:Condens. Matter 29 465901 (2017);
          URL http://www.quantum-espresso.org", 
     in publications or presentations arising from this work. More details at
     http://www.quantum-espresso.org/quote

     Serial multi-threaded version, running on    4 processor cores
     Reading input from si.0_scf.in

     Current dimensions of program PWSCF are:
     Max number of different atomic species (ntypx) = 10
     Max number of k-points (npk) =  40000
     Max angular momentum in pseudopotentials (lmaxx) =  3

     Program PWSCF v.6.7MaX starts on 10Feb2021 at 11:29:45 

     This program is part of the open-source Quantum ESPRESSO suite
     for quantum simulation of materials; please cite
         "P. Giannozzi et al., J. Phys.:Condens. Matter 21 395502 (2009);
         "P. Giannozzi et al., J. Phys.:Condens. Matter 29 465901 (2017);
          URL http://www.quantum-espresso.org", 
     in publications or presentations arising from this work. More details at
     http://www.quantum-espresso.org/quote

     Serial multi-threaded version, running on    4 processor cores
     Reading input from si.0_scf.in

     Current dimensions of program PWSCF are:
     Max number of different atomic species (ntypx) = 10
     Max number of k-points (npk) =  40000
     Max angular momentum in pseudopotentials (lmaxx) =  3

     Program PWSCF v.6.7MaX starts on 10Feb2021 at 11:29:45 

     This program is part of the open-source Quantum ESPRESSO suite
     for quantum simulation of materials; please cite
         "P. Giannozzi et al., J. Phys.:Condens. Matter 21 395502 (2009);
         "P. Giannozzi et al., J. Phys.:Condens. Matter 29 465901 (2017);
          URL http://www.quantum-espresso.org", 
     in publications or presentations arising from this work. More details at
     http://www.quantum-espresso.org/quote

     Serial multi-threaded version, running on    4 processor cores
     Reading input from si.0_scf.in

     Current dimensions of program PWSCF are:
     Max number of different atomic species (ntypx) = 10
     Max number of k-points (npk) =  40000
     Max angular momentum in pseudopotentials (lmaxx) =  3

     Program PWSCF v.6.7MaX starts on 10Feb2021 at 11:29:45 

     This program is part of the open-source Quantum ESPRESSO suite
     for quantum simulation of materials; please cite
         "P. Giannozzi et al., J. Phys.:Condens. Matter 21 395502 (2009);
         "P. Giannozzi et al., J. Phys.:Condens. Matter 29 465901 (2017);
          URL http://www.quantum-espresso.org", 
     in publications or presentations arising from this work. More details at
     http://www.quantum-espresso.org/quote

     Serial multi-threaded version, running on    4 processor cores
     Reading input from si.0_scf.in

     Current dimensions of program PWSCF are:
     Max number of different atomic species (ntypx) = 10
     Max number of k-points (npk) =  40000
     Max angular momentum in pseudopotentials (lmaxx) =  3

     G-vector sticks info
     --------------------
     sticks:   dense  smooth     PW     G-vecs:    dense   smooth      PW
     Sum        1189     595    187                27317     9577    1687



     bravais-lattice index     =            2
     lattice parameter (alat)  =      10.4109  a.u.
     unit-cell volume          =     282.1019 (a.u.)^3
     number of atoms/cell      =            2
     number of atomic types    =            1
     number of electrons       =         8.00
     number of Kohn-Sham states=            8
     kinetic-energy cutoff     =      40.0000  Ry
     charge density cutoff     =     320.0000  Ry
     scf convergence threshold =      1.0E-08
     mixing beta               =       0.7000
     number of iterations used =            8  plain     mixing
     Exchange-correlation= PBE
                           (   1   4   3   4   0   0   0)

     celldm(1)=  10.410909  celldm(2)=   0.000000  celldm(3)=   0.000000
     celldm(4)=   0.000000  celldm(5)=   0.000000  celldm(6)=   0.000000

     crystal axes: (cart. coord. in units of alat)
               a(1) = (  -0.500000   0.000000   0.500000 )  
               a(2) = (   0.000000   0.500000   0.500000 )  
               a(3) = (  -0.500000   0.500000   0.000000 )  

     reciprocal axes: (cart. coord. in units 2 pi/alat)
               b(1) = ( -1.000000 -1.000000  1.000000 )  
               b(2) = (  1.000000  1.000000  1.000000 )  
               b(3) = ( -1.000000  1.000000 -1.000000 )  


     PseudoPot. # 1 for Si read from file:
     /home/natan/mphys/qe_6.7_runs/Si/Si.pbe-n-rrkjus_psl.1.0.0.UPF
     MD5 check sum: fa25574f73a70a4139f2adfbefec430c
     Pseudo is Ultrasoft + core correction, Zval =  4.0
     Generated using &quot;atomic&quot; code by A. Dal Corso  v.6.3
     Using radial grid of 1141 points,  6 beta functions with: 
                l(1) =   0
                l(2) =   0
                l(3) =   1
                l(4) =   1
                l(5) =   2
                l(6) =   2
     Q(r) pseudized with 0 coefficients 


     atomic species   valence    mass     pseudopotential
        Si             4.00    28.08550     Si( 1.00)

     48 Sym. Ops., with inversion, found (24 have fractional translation)



   Cartesian axes

     site n.     atom                  positions (alat units)
         1           Si  tau(   1) = (   0.0000000   0.0000000   0.0000000  )
         2           Si  tau(   2) = (   0.2500000   0.2500000   0.2500000  )

     number of k points=    29  Gaussian smearing, width (Ry)=  0.0050
                       cart. coord. in units 2pi/alat
        k(    1) = (   0.0000000   0.0000000   0.0000000), wk =   0.0039062
        k(    2) = (  -0.1250000   0.1250000  -0.1250000), wk =   0.0312500
        k(    3) = (  -0.2500000   0.2500000  -0.2500000), wk =   0.0312500
        k(    4) = (  -0.3750000   0.3750000  -0.3750000), wk =   0.0312500
        k(    5) = (   0.5000000  -0.5000000   0.5000000), wk =   0.0156250
        k(    6) = (   0.0000000   0.2500000   0.0000000), wk =   0.0234375
        k(    7) = (  -0.1250000   0.3750000  -0.1250000), wk =   0.0937500
        k(    8) = (  -0.2500000   0.5000000  -0.2500000), wk =   0.0937500
        k(    9) = (   0.6250000  -0.3750000   0.6250000), wk =   0.0937500
        k(   10) = (   0.5000000  -0.2500000   0.5000000), wk =   0.0937500
        k(   11) = (   0.3750000  -0.1250000   0.3750000), wk =   0.0937500
        k(   12) = (   0.2500000   0.0000000   0.2500000), wk =   0.0468750
        k(   13) = (   0.0000000   0.5000000   0.0000000), wk =   0.0234375
        k(   14) = (  -0.1250000   0.6250000  -0.1250000), wk =   0.0937500
        k(   15) = (   0.7500000  -0.2500000   0.7500000), wk =   0.0937500
        k(   16) = (   0.6250000  -0.1250000   0.6250000), wk =   0.0937500
        k(   17) = (   0.5000000   0.0000000   0.5000000), wk =   0.0468750
        k(   18) = (   0.0000000   0.7500000   0.0000000), wk =   0.0234375
        k(   19) = (   0.8750000  -0.1250000   0.8750000), wk =   0.0937500
        k(   20) = (   0.7500000   0.0000000   0.7500000), wk =   0.0468750
        k(   21) = (   0.0000000  -1.0000000   0.0000000), wk =   0.0117188
        k(   22) = (  -0.2500000   0.5000000   0.0000000), wk =   0.0937500
        k(   23) = (   0.6250000  -0.3750000   0.8750000), wk =   0.1875000
        k(   24) = (   0.5000000  -0.2500000   0.7500000), wk =   0.0937500
        k(   25) = (   0.7500000  -0.2500000   1.0000000), wk =   0.0937500
        k(   26) = (   0.6250000  -0.1250000   0.8750000), wk =   0.1875000
        k(   27) = (   0.5000000   0.0000000   0.7500000), wk =   0.0937500
        k(   28) = (  -0.2500000  -1.0000000   0.0000000), wk =   0.0468750
        k(   29) = (  -0.5000000  -1.0000000   0.0000000), wk =   0.0234375

     Dense  grid:    27317 G-vectors     FFT dimensions: (  48,  48,  48)

     Smooth grid:     9577 G-vectors     FFT dimensions: (  32,  32,  32)

     Estimated max dynamical RAM per process >     103.69 MB

     G-vector sticks info
     --------------------
     sticks:   dense  smooth     PW     G-vecs:    dense   smooth      PW
     Sum        1189     595    187                27317     9577    1687



     bravais-lattice index     =            2
     lattice parameter (alat)  =      10.4109  a.u.
     unit-cell volume          =     282.1019 (a.u.)^3
     number of atoms/cell      =            2
     number of atomic types    =            1
     number of electrons       =         8.00
     number of Kohn-Sham states=            8
     kinetic-energy cutoff     =      40.0000  Ry
     charge density cutoff     =     320.0000  Ry
     scf convergence threshold =      1.0E-08
     mixing beta               =       0.7000
     number of iterations used =            8  plain     mixing
     Exchange-correlation= PBE
                           (   1   4   3   4   0   0   0)

     celldm(1)=  10.410909  celldm(2)=   0.000000  celldm(3)=   0.000000
     celldm(4)=   0.000000  celldm(5)=   0.000000  celldm(6)=   0.000000

     crystal axes: (cart. coord. in units of alat)
               a(1) = (  -0.500000   0.000000   0.500000 )  
               a(2) = (   0.000000   0.500000   0.500000 )  
               a(3) = (  -0.500000   0.500000   0.000000 )  

     reciprocal axes: (cart. coord. in units 2 pi/alat)
               b(1) = ( -1.000000 -1.000000  1.000000 )  
               b(2) = (  1.000000  1.000000  1.000000 )  
               b(3) = ( -1.000000  1.000000 -1.000000 )  


     PseudoPot. # 1 for Si read from file:
     /home/natan/mphys/qe_6.7_runs/Si/Si.pbe-n-rrkjus_psl.1.0.0.UPF
     MD5 check sum: fa25574f73a70a4139f2adfbefec430c
     Pseudo is Ultrasoft + core correction, Zval =  4.0
     Generated using &quot;atomic&quot; code by A. Dal Corso  v.6.3
     Using radial grid of 1141 points,  6 beta functions with: 
                l(1) =   0
                l(2) =   0
                l(3) =   1
                l(4) =   1
                l(5) =   2
                l(6) =   2
     Q(r) pseudized with 0 coefficients 


     atomic species   valence    mass     pseudopotential
        Si             4.00    28.08550     Si( 1.00)

     48 Sym. Ops., with inversion, found (24 have fractional translation)



   Cartesian axes

     site n.     atom                  positions (alat units)
         1           Si  tau(   1) = (   0.0000000   0.0000000   0.0000000  )
         2           Si  tau(   2) = (   0.2500000   0.2500000   0.2500000  )

     number of k points=    29  Gaussian smearing, width (Ry)=  0.0050
                       cart. coord. in units 2pi/alat
        k(    1) = (   0.0000000   0.0000000   0.0000000), wk =   0.0039062
        k(    2) = (  -0.1250000   0.1250000  -0.1250000), wk =   0.0312500
        k(    3) = (  -0.2500000   0.2500000  -0.2500000), wk =   0.0312500
        k(    4) = (  -0.3750000   0.3750000  -0.3750000), wk =   0.0312500
        k(    5) = (   0.5000000  -0.5000000   0.5000000), wk =   0.0156250
        k(    6) = (   0.0000000   0.2500000   0.0000000), wk =   0.0234375
        k(    7) = (  -0.1250000   0.3750000  -0.1250000), wk =   0.0937500
        k(    8) = (  -0.2500000   0.5000000  -0.2500000), wk =   0.0937500
        k(    9) = (   0.6250000  -0.3750000   0.6250000), wk =   0.0937500
        k(   10) = (   0.5000000  -0.2500000   0.5000000), wk =   0.0937500
        k(   11) = (   0.3750000  -0.1250000   0.3750000), wk =   0.0937500
        k(   12) = (   0.2500000   0.0000000   0.2500000), wk =   0.0468750
        k(   13) = (   0.0000000   0.5000000   0.0000000), wk =   0.0234375
        k(   14) = (  -0.1250000   0.6250000  -0.1250000), wk =   0.0937500
        k(   15) = (   0.7500000  -0.2500000   0.7500000), wk =   0.0937500
        k(   16) = (   0.6250000  -0.1250000   0.6250000), wk =   0.0937500
        k(   17) = (   0.5000000   0.0000000   0.5000000), wk =   0.0468750
        k(   18) = (   0.0000000   0.7500000   0.0000000), wk =   0.0234375
        k(   19) = (   0.8750000  -0.1250000   0.8750000), wk =   0.0937500
        k(   20) = (   0.7500000   0.0000000   0.7500000), wk =   0.0468750
        k(   21) = (   0.0000000  -1.0000000   0.0000000), wk =   0.0117188
        k(   22) = (  -0.2500000   0.5000000   0.0000000), wk =   0.0937500
        k(   23) = (   0.6250000  -0.3750000   0.8750000), wk =   0.1875000
        k(   24) = (   0.5000000  -0.2500000   0.7500000), wk =   0.0937500
        k(   25) = (   0.7500000  -0.2500000   1.0000000), wk =   0.0937500
        k(   26) = (   0.6250000  -0.1250000   0.8750000), wk =   0.1875000
        k(   27) = (   0.5000000   0.0000000   0.7500000), wk =   0.0937500
        k(   28) = (  -0.2500000  -1.0000000   0.0000000), wk =   0.0468750
        k(   29) = (  -0.5000000  -1.0000000   0.0000000), wk =   0.0234375

     Dense  grid:    27317 G-vectors     FFT dimensions: (  48,  48,  48)

     Smooth grid:     9577 G-vectors     FFT dimensions: (  32,  32,  32)

     Estimated max dynamical RAM per process >     103.69 MB

     G-vector sticks info
     --------------------
     sticks:   dense  smooth     PW     G-vecs:    dense   smooth      PW
     Sum        1189     595    187                27317     9577    1687



     bravais-lattice index     =            2
     lattice parameter (alat)  =      10.4109  a.u.
     unit-cell volume          =     282.1019 (a.u.)^3
     number of atoms/cell      =            2
     number of atomic types    =            1
     number of electrons       =         8.00
     number of Kohn-Sham states=            8
     kinetic-energy cutoff     =      40.0000  Ry
     charge density cutoff     =     320.0000  Ry
     scf convergence threshold =      1.0E-08
     mixing beta               =       0.7000
     number of iterations used =            8  plain     mixing
     Exchange-correlation= PBE
                           (   1   4   3   4   0   0   0)

     celldm(1)=  10.410909  celldm(2)=   0.000000  celldm(3)=   0.000000
     celldm(4)=   0.000000  celldm(5)=   0.000000  celldm(6)=   0.000000

     crystal axes: (cart. coord. in units of alat)
               a(1) = (  -0.500000   0.000000   0.500000 )  
               a(2) = (   0.000000   0.500000   0.500000 )  
               a(3) = (  -0.500000   0.500000   0.000000 )  

     reciprocal axes: (cart. coord. in units 2 pi/alat)
               b(1) = ( -1.000000 -1.000000  1.000000 )  
               b(2) = (  1.000000  1.000000  1.000000 )  
               b(3) = ( -1.000000  1.000000 -1.000000 )  


     PseudoPot. # 1 for Si read from file:
     /home/natan/mphys/qe_6.7_runs/Si/Si.pbe-n-rrkjus_psl.1.0.0.UPF
     MD5 check sum: fa25574f73a70a4139f2adfbefec430c
     Pseudo is Ultrasoft + core correction, Zval =  4.0
     Generated using &quot;atomic&quot; code by A. Dal Corso  v.6.3
     Using radial grid of 1141 points,  6 beta functions with: 
                l(1) =   0
                l(2) =   0
                l(3) =   1
                l(4) =   1
                l(5) =   2
                l(6) =   2
     Q(r) pseudized with 0 coefficients 


     atomic species   valence    mass     pseudopotential
        Si             4.00    28.08550     Si( 1.00)

     48 Sym. Ops., with inversion, found (24 have fractional translation)



   Cartesian axes

     site n.     atom                  positions (alat units)
         1           Si  tau(   1) = (   0.0000000   0.0000000   0.0000000  )
         2           Si  tau(   2) = (   0.2500000   0.2500000   0.2500000  )

     number of k points=    29  Gaussian smearing, width (Ry)=  0.0050
                       cart. coord. in units 2pi/alat
        k(    1) = (   0.0000000   0.0000000   0.0000000), wk =   0.0039062
        k(    2) = (  -0.1250000   0.1250000  -0.1250000), wk =   0.0312500
        k(    3) = (  -0.2500000   0.2500000  -0.2500000), wk =   0.0312500
        k(    4) = (  -0.3750000   0.3750000  -0.3750000), wk =   0.0312500
        k(    5) = (   0.5000000  -0.5000000   0.5000000), wk =   0.0156250
        k(    6) = (   0.0000000   0.2500000   0.0000000), wk =   0.0234375
        k(    7) = (  -0.1250000   0.3750000  -0.1250000), wk =   0.0937500
        k(    8) = (  -0.2500000   0.5000000  -0.2500000), wk =   0.0937500
        k(    9) = (   0.6250000  -0.3750000   0.6250000), wk =   0.0937500
        k(   10) = (   0.5000000  -0.2500000   0.5000000), wk =   0.0937500
        k(   11) = (   0.3750000  -0.1250000   0.3750000), wk =   0.0937500
        k(   12) = (   0.2500000   0.0000000   0.2500000), wk =   0.0468750
        k(   13) = (   0.0000000   0.5000000   0.0000000), wk =   0.0234375
        k(   14) = (  -0.1250000   0.6250000  -0.1250000), wk =   0.0937500
        k(   15) = (   0.7500000  -0.2500000   0.7500000), wk =   0.0937500
        k(   16) = (   0.6250000  -0.1250000   0.6250000), wk =   0.0937500
        k(   17) = (   0.5000000   0.0000000   0.5000000), wk =   0.0468750
        k(   18) = (   0.0000000   0.7500000   0.0000000), wk =   0.0234375
        k(   19) = (   0.8750000  -0.1250000   0.8750000), wk =   0.0937500
        k(   20) = (   0.7500000   0.0000000   0.7500000), wk =   0.0468750
        k(   21) = (   0.0000000  -1.0000000   0.0000000), wk =   0.0117188
        k(   22) = (  -0.2500000   0.5000000   0.0000000), wk =   0.0937500
        k(   23) = (   0.6250000  -0.3750000   0.8750000), wk =   0.1875000
        k(   24) = (   0.5000000  -0.2500000   0.7500000), wk =   0.0937500
        k(   25) = (   0.7500000  -0.2500000   1.0000000), wk =   0.0937500
        k(   26) = (   0.6250000  -0.1250000   0.8750000), wk =   0.1875000
        k(   27) = (   0.5000000   0.0000000   0.7500000), wk =   0.0937500
        k(   28) = (  -0.2500000  -1.0000000   0.0000000), wk =   0.0468750
        k(   29) = (  -0.5000000  -1.0000000   0.0000000), wk =   0.0234375

     Dense  grid:    27317 G-vectors     FFT dimensions: (  48,  48,  48)

     Smooth grid:     9577 G-vectors     FFT dimensions: (  32,  32,  32)

     Estimated max dynamical RAM per process >     103.69 MB

     G-vector sticks info
     --------------------
     sticks:   dense  smooth     PW     G-vecs:    dense   smooth      PW
     Sum        1189     595    187                27317     9577    1687



     bravais-lattice index     =            2
     lattice parameter (alat)  =      10.4109  a.u.
     unit-cell volume          =     282.1019 (a.u.)^3
     number of atoms/cell      =            2
     number of atomic types    =            1
     number of electrons       =         8.00
     number of Kohn-Sham states=            8
     kinetic-energy cutoff     =      40.0000  Ry
     charge density cutoff     =     320.0000  Ry
     scf convergence threshold =      1.0E-08
     mixing beta               =       0.7000
     number of iterations used =            8  plain     mixing
     Exchange-correlation= PBE
                           (   1   4   3   4   0   0   0)

     celldm(1)=  10.410909  celldm(2)=   0.000000  celldm(3)=   0.000000
     celldm(4)=   0.000000  celldm(5)=   0.000000  celldm(6)=   0.000000

     crystal axes: (cart. coord. in units of alat)
               a(1) = (  -0.500000   0.000000   0.500000 )  
               a(2) = (   0.000000   0.500000   0.500000 )  
               a(3) = (  -0.500000   0.500000   0.000000 )  

     reciprocal axes: (cart. coord. in units 2 pi/alat)
               b(1) = ( -1.000000 -1.000000  1.000000 )  
               b(2) = (  1.000000  1.000000  1.000000 )  
               b(3) = ( -1.000000  1.000000 -1.000000 )  


     PseudoPot. # 1 for Si read from file:
     /home/natan/mphys/qe_6.7_runs/Si/Si.pbe-n-rrkjus_psl.1.0.0.UPF
     MD5 check sum: fa25574f73a70a4139f2adfbefec430c
     Pseudo is Ultrasoft + core correction, Zval =  4.0
     Generated using &quot;atomic&quot; code by A. Dal Corso  v.6.3
     Using radial grid of 1141 points,  6 beta functions with: 
                l(1) =   0
                l(2) =   0
                l(3) =   1
                l(4) =   1
                l(5) =   2
                l(6) =   2
     Q(r) pseudized with 0 coefficients 


     atomic species   valence    mass     pseudopotential
        Si             4.00    28.08550     Si( 1.00)

     48 Sym. Ops., with inversion, found (24 have fractional translation)



   Cartesian axes

     site n.     atom                  positions (alat units)
         1           Si  tau(   1) = (   0.0000000   0.0000000   0.0000000  )
         2           Si  tau(   2) = (   0.2500000   0.2500000   0.2500000  )

     number of k points=    29  Gaussian smearing, width (Ry)=  0.0050
                       cart. coord. in units 2pi/alat
        k(    1) = (   0.0000000   0.0000000   0.0000000), wk =   0.0039062
        k(    2) = (  -0.1250000   0.1250000  -0.1250000), wk =   0.0312500
        k(    3) = (  -0.2500000   0.2500000  -0.2500000), wk =   0.0312500
        k(    4) = (  -0.3750000   0.3750000  -0.3750000), wk =   0.0312500
        k(    5) = (   0.5000000  -0.5000000   0.5000000), wk =   0.0156250
        k(    6) = (   0.0000000   0.2500000   0.0000000), wk =   0.0234375
        k(    7) = (  -0.1250000   0.3750000  -0.1250000), wk =   0.0937500
        k(    8) = (  -0.2500000   0.5000000  -0.2500000), wk =   0.0937500
        k(    9) = (   0.6250000  -0.3750000   0.6250000), wk =   0.0937500
        k(   10) = (   0.5000000  -0.2500000   0.5000000), wk =   0.0937500
        k(   11) = (   0.3750000  -0.1250000   0.3750000), wk =   0.0937500
        k(   12) = (   0.2500000   0.0000000   0.2500000), wk =   0.0468750
        k(   13) = (   0.0000000   0.5000000   0.0000000), wk =   0.0234375
        k(   14) = (  -0.1250000   0.6250000  -0.1250000), wk =   0.0937500
        k(   15) = (   0.7500000  -0.2500000   0.7500000), wk =   0.0937500
        k(   16) = (   0.6250000  -0.1250000   0.6250000), wk =   0.0937500
        k(   17) = (   0.5000000   0.0000000   0.5000000), wk =   0.0468750
        k(   18) = (   0.0000000   0.7500000   0.0000000), wk =   0.0234375
        k(   19) = (   0.8750000  -0.1250000   0.8750000), wk =   0.0937500
        k(   20) = (   0.7500000   0.0000000   0.7500000), wk =   0.0468750
        k(   21) = (   0.0000000  -1.0000000   0.0000000), wk =   0.0117188
        k(   22) = (  -0.2500000   0.5000000   0.0000000), wk =   0.0937500
        k(   23) = (   0.6250000  -0.3750000   0.8750000), wk =   0.1875000
        k(   24) = (   0.5000000  -0.2500000   0.7500000), wk =   0.0937500
        k(   25) = (   0.7500000  -0.2500000   1.0000000), wk =   0.0937500
        k(   26) = (   0.6250000  -0.1250000   0.8750000), wk =   0.1875000
        k(   27) = (   0.5000000   0.0000000   0.7500000), wk =   0.0937500
        k(   28) = (  -0.2500000  -1.0000000   0.0000000), wk =   0.0468750
        k(   29) = (  -0.5000000  -1.0000000   0.0000000), wk =   0.0234375

     Dense  grid:    27317 G-vectors     FFT dimensions: (  48,  48,  48)

     Smooth grid:     9577 G-vectors     FFT dimensions: (  32,  32,  32)

     Estimated max dynamical RAM per process >     103.69 MB

     Initial potential from superposition of free atoms

     starting charge    7.99888, renormalised to    8.00000

     Initial potential from superposition of free atoms

     Initial potential from superposition of free atoms

     starting charge    7.99888, renormalised to    8.00000

     Initial potential from superposition of free atoms

     starting charge    7.99888, renormalised to    8.00000

     starting charge    7.99888, renormalised to    8.00000
     Starting wfcs are    8 randomized atomic wfcs
     Starting wfcs are    8 randomized atomic wfcs
     Starting wfcs are    8 randomized atomic wfcs
     Starting wfcs are    8 randomized atomic wfcs

     total cpu time spent up to now is       15.7 secs

     Self-consistent Calculation

     iteration #  1     ecut=    40.00 Ry     beta= 0.70
     Davidson diagonalization with overlap

     total cpu time spent up to now is       15.9 secs

     Self-consistent Calculation

     iteration #  1     ecut=    40.00 Ry     beta= 0.70
     Davidson diagonalization with overlap

     total cpu time spent up to now is       16.4 secs

     Self-consistent Calculation

     iteration #  1     ecut=    40.00 Ry     beta= 0.70
     Davidson diagonalization with overlap

     total cpu time spent up to now is       16.5 secs

     Self-consistent Calculation

     iteration #  1     ecut=    40.00 Ry     beta= 0.70
     Davidson diagonalization with overlap
     ethr =  1.00E-02,  avg # of iterations =  3.7
     ethr =  1.00E-02,  avg # of iterations =  3.7
     ethr =  1.00E-02,  avg # of iterations =  3.7
     ethr =  1.00E-02,  avg # of iterations =  3.7

     Threshold (ethr) on eigenvalues was too large:
     Diagonalizing with lowered threshold

     Davidson diagonalization with overlap

     Threshold (ethr) on eigenvalues was too large:
     Diagonalizing with lowered threshold

     Davidson diagonalization with overlap

     Threshold (ethr) on eigenvalues was too large:
     Diagonalizing with lowered threshold

     Davidson diagonalization with overlap

     Threshold (ethr) on eigenvalues was too large:
     Diagonalizing with lowered threshold

     Davidson diagonalization with overlap
     ethr =  6.02E-04,  avg # of iterations =  2.0
     ethr =  6.02E-04,  avg # of iterations =  2.0
     ethr =  6.02E-04,  avg # of iterations =  2.0
     ethr =  6.02E-04,  avg # of iterations =  2.0

     total cpu time spent up to now is       95.0 secs

     total energy              =     -22.83736058 Ry
     estimated scf accuracy    <       0.05179419 Ry

     iteration #  2     ecut=    40.00 Ry     beta= 0.70
     Davidson diagonalization with overlap

     total cpu time spent up to now is       96.2 secs

     total energy              =     -22.83736058 Ry
     estimated scf accuracy    <       0.05179419 Ry

     iteration #  2     ecut=    40.00 Ry     beta= 0.70
     Davidson diagonalization with overlap

     total cpu time spent up to now is       96.6 secs

     total energy              =     -22.83736058 Ry
     estimated scf accuracy    <       0.05179419 Ry

     iteration #  2     ecut=    40.00 Ry     beta= 0.70
     Davidson diagonalization with overlap

     total cpu time spent up to now is       97.3 secs

     total energy              =     -22.83736058 Ry
     estimated scf accuracy    <       0.05179419 Ry

     iteration #  2     ecut=    40.00 Ry     beta= 0.70
     Davidson diagonalization with overlap
     ethr =  6.47E-04,  avg # of iterations =  1.2
     ethr =  6.47E-04,  avg # of iterations =  1.2
     ethr =  6.47E-04,  avg # of iterations =  1.2
     ethr =  6.47E-04,  avg # of iterations =  1.2

     total cpu time spent up to now is      128.5 secs

     total energy              =     -22.83930911 Ry
     estimated scf accuracy    <       0.00225094 Ry

     iteration #  3     ecut=    40.00 Ry     beta= 0.70
     Davidson diagonalization with overlap

     total cpu time spent up to now is      129.1 secs

     total energy              =     -22.83930911 Ry
     estimated scf accuracy    <       0.00225094 Ry

     iteration #  3     ecut=    40.00 Ry     beta= 0.70
     Davidson diagonalization with overlap

     total cpu time spent up to now is      129.8 secs

     total energy              =     -22.83930911 Ry
     estimated scf accuracy    <       0.00225094 Ry

     iteration #  3     ecut=    40.00 Ry     beta= 0.70
     Davidson diagonalization with overlap

     total cpu time spent up to now is      130.3 secs

     total energy              =     -22.83930911 Ry
     estimated scf accuracy    <       0.00225094 Ry

     iteration #  3     ecut=    40.00 Ry     beta= 0.70
     Davidson diagonalization with overlap
     ethr =  2.81E-05,  avg # of iterations =  4.8
     ethr =  2.81E-05,  avg # of iterations =  4.8
     ethr =  2.81E-05,  avg # of iterations =  4.8
     ethr =  2.81E-05,  avg # of iterations =  4.8

     total cpu time spent up to now is      180.6 secs

     total energy              =     -22.83944651 Ry
     estimated scf accuracy    <       0.00004323 Ry

     iteration #  4     ecut=    40.00 Ry     beta= 0.70
     Davidson diagonalization with overlap

     total cpu time spent up to now is      180.6 secs

     total energy              =     -22.83944651 Ry
     estimated scf accuracy    <       0.00004323 Ry

     iteration #  4     ecut=    40.00 Ry     beta= 0.70
     Davidson diagonalization with overlap

     total cpu time spent up to now is      181.8 secs

     total energy              =     -22.83944651 Ry
     estimated scf accuracy    <       0.00004323 Ry

     iteration #  4     ecut=    40.00 Ry     beta= 0.70
     Davidson diagonalization with overlap

     total cpu time spent up to now is      182.6 secs

     total energy              =     -22.83944651 Ry
     estimated scf accuracy    <       0.00004323 Ry

     iteration #  4     ecut=    40.00 Ry     beta= 0.70
     Davidson diagonalization with overlap
     ethr =  5.40E-07,  avg # of iterations =  3.9
     ethr =  5.40E-07,  avg # of iterations =  3.9
     ethr =  5.40E-07,  avg # of iterations =  3.9
     ethr =  5.40E-07,  avg # of iterations =  3.9

     total cpu time spent up to now is      227.2 secs

     total energy              =     -22.83945454 Ry
     estimated scf accuracy    <       0.00000008 Ry

     iteration #  5     ecut=    40.00 Ry     beta= 0.70
     Davidson diagonalization with overlap

     total cpu time spent up to now is      228.7 secs

     total energy              =     -22.83945454 Ry
     estimated scf accuracy    <       0.00000008 Ry

     iteration #  5     ecut=    40.00 Ry     beta= 0.70
     Davidson diagonalization with overlap

     total cpu time spent up to now is      230.0 secs

     total energy              =     -22.83945454 Ry
     estimated scf accuracy    <       0.00000008 Ry

     iteration #  5     ecut=    40.00 Ry     beta= 0.70
     Davidson diagonalization with overlap

     total cpu time spent up to now is      231.1 secs

     total energy              =     -22.83945454 Ry
     estimated scf accuracy    <       0.00000008 Ry

     iteration #  5     ecut=    40.00 Ry     beta= 0.70
     Davidson diagonalization with overlap
     ethr =  9.84E-10,  avg # of iterations =  3.9
     ethr =  9.84E-10,  avg # of iterations =  3.9
     ethr =  9.84E-10,  avg # of iterations =  3.9
     ethr =  9.84E-10,  avg # of iterations =  3.9

     total cpu time spent up to now is      275.7 secs

     End of self-consistent calculation

          k = 0.0000 0.0000 0.0000 (  1243 PWs)   bands (ev):

    -5.9091   5.7618   5.7618   5.7618   8.3057   8.3057   8.3057   8.6345

          k =-0.1250 0.1250-0.1250 (  1218 PWs)   bands (ev):

    -5.7125   4.1728   5.4849   5.4849   8.1292   8.7129   8.7129  10.1035

          k =-0.2500 0.2500-0.2500 (  1215 PWs)   bands (ev):

    -5.1399   1.9092   5.0291   5.0291   7.6395   9.2315   9.2315  12.3278

          k =-0.3750 0.3750-0.3750 (  1203 PWs)   bands (ev):

    -4.2854  -0.0390   4.7099   4.7099   7.2752   9.2145   9.2145  13.5471

          k = 0.5000-0.5000 0.5000 (  1194 PWs)   bands (ev):

    -3.6851  -1.0123   4.6003   4.6003   7.1473   9.1193   9.1193  13.4375

          k = 0.0000 0.2500 0.0000 (  1219 PWs)   bands (ev):

    -5.6462   4.3839   4.9934   4.9934   7.7765   9.3968   9.3968   9.7774

          k =-0.1250 0.3750-0.1250 (  1217 PWs)   bands (ev):

    -5.1952   2.5664   4.4996   4.5509   7.8999   9.2886  10.1442  10.4857

          k =-0.2500 0.5000-0.2500 (  1205 PWs)   bands (ev):

    -4.4138   0.5839   3.9750   4.2373   7.9631   9.2993  10.1780  11.1741

          k = 0.6250-0.3750 0.6250 (  1204 PWs)   bands (ev):

    -3.5980  -0.8129   3.5464   4.2566   7.8843   9.2243   9.8467  12.9970

          k = 0.5000-0.2500 0.5000 (  1199 PWs)   bands (ev):

    -3.8278  -0.4613   3.3778   4.5389   8.0157   9.3549   9.6187  13.4904

          k = 0.3750-0.1250 0.3750 (  1209 PWs)   bands (ev):

    -4.7072   1.2170   3.5359   5.0105   8.3424   9.4021   9.5757  11.8764

          k = 0.2500 0.0000 0.2500 (  1217 PWs)   bands (ev):

    -5.3889   3.0891   4.2091   5.4738   8.6399   8.8496   9.0625  11.0588

          k = 0.0000 0.5000 0.0000 (  1198 PWs)   bands (ev):

    -4.8671   2.2338   3.9507   3.9507   6.9323   8.8948  11.3790  11.3790

          k =-0.1250 0.6250-0.1250 (  1216 PWs)   bands (ev):

    -4.1848   0.8640   3.1994   3.6424   7.1512   8.6708  11.5752  11.9027

          k = 0.7500-0.2500 0.7500 (  1209 PWs)   bands (ev):

    -3.3017  -0.5100   2.3672   3.6430   7.3235  10.1759  11.3026  11.5938

          k = 0.6250-0.1250 0.6250 (  1198 PWs)   bands (ev):

    -3.1117  -0.7515   1.9310   3.9472   7.6262  11.0951  11.1625  12.5670

          k = 0.5000 0.0000 0.5000 (  1203 PWs)   bands (ev):

    -3.9467   0.3557   2.1723   4.4816   8.1810  10.4625  10.7966  11.6858

          k = 0.0000 0.7500 0.0000 (  1206 PWs)   bands (ev):

    -3.6039   0.0751   3.2584   3.2584   6.4468   7.3736  13.5869  13.5870

          k = 0.8750-0.1250 0.8750 (  1205 PWs)   bands (ev):

    -2.7433  -0.9723   2.4767   3.1840   6.7288   7.7642  13.8358  13.8557

          k = 0.7500 0.0000 0.7500 (  1202 PWs)   bands (ev):

    -2.3357  -1.3460   1.6585   3.4310   7.0254   9.8569  13.0434  13.6714

          k = 0.0000-1.0000 0.0000 (  1186 PWs)   bands (ev):

    -1.9203  -1.9203   3.0208   3.0208   6.5553   6.5553  15.4988  15.4989

          k =-0.2500 0.5000 0.0000 (  1216 PWs)   bands (ev):

    -4.6302   1.5068   3.1668   4.3858   8.1980   9.4972   9.9800  11.1380

          k = 0.6250-0.3750 0.8750 (  1205 PWs)   bands (ev):

    -3.7803   0.0200   2.5668   3.9121   8.6075   9.2643  10.6949  11.5820

          k = 0.5000-0.2500 0.7500 (  1198 PWs)   bands (ev):

    -3.1646  -0.8737   2.4329   3.6955   8.7342   8.9240  11.5380  12.7832

          k = 0.7500-0.2500 1.0000 (  1210 PWs)   bands (ev):

    -3.4160  -0.1363   2.5440   3.1247   7.7251   8.4321  11.3731  13.5401

          k = 0.6250-0.1250 0.8750 (  1203 PWs)   bands (ev):

    -2.5842  -1.0650   1.8820   2.9336   8.1625  10.0194  10.9043  13.0170

          k = 0.5000 0.0000 0.7500 (  1203 PWs)   bands (ev):

    -2.9206  -0.7126   1.7242   3.2910   8.6202  10.2448  10.8755  12.6531

          k =-0.2500-1.0000 0.0000 (  1196 PWs)   bands (ev):

    -1.8508  -1.8508   2.4956   2.4956   7.7628   7.7628  13.4106  13.4107

          k =-0.5000-1.0000 0.0000 (  1216 PWs)   bands (ev):

    -1.7750  -1.7750   2.0881   2.0881  10.0381  10.0382  10.6113  10.6113

     the Fermi energy is     6.1499 ev

!    total energy              =     -22.83945479 Ry
     estimated scf accuracy    <          5.4E-09 Ry
     smearing contrib. (-TS)   =      -0.00000000 Ry
     internal energy E=F+TS    =     -22.83945479 Ry

     The total energy is F=E-TS. E is the sum of the following terms:
     one-electron contribution =       4.83571367 Ry
     hartree contribution      =       1.13968413 Ry
     xc contribution           =     -12.25745751 Ry
     ewald contribution        =     -16.55739508 Ry

     convergence has been achieved in   5 iterations

     Writing output data file ./outdir/si.save/

     init_run     :     13.69s CPU     15.51s WALL (       1 calls)
     electrons    :    222.20s CPU    260.05s WALL (       1 calls)

     Called by init_run:
     wfcinit      :      7.52s CPU      8.97s WALL (       1 calls)
     potinit      :      0.14s CPU      0.16s WALL (       1 calls)
     hinit0       :      3.22s CPU      3.37s WALL (       1 calls)

     Called by electrons:
     c_bands      :    153.13s CPU    183.45s WALL (       6 calls)
     sum_band     :     54.42s CPU     61.23s WALL (       6 calls)
     v_of_rho     :      0.63s CPU      0.77s WALL (       6 calls)
     newd         :     16.87s CPU     17.67s WALL (       6 calls)
     mix_rho      :      0.02s CPU      0.02s WALL (       6 calls)

     Called by c_bands:
     init_us_2    :      3.38s CPU      3.57s WALL (     377 calls)
     cegterg      :    149.44s CPU    179.53s WALL (     174 calls)

     Called by *egterg:
     cdiaghg      :      5.47s CPU      7.40s WALL (     709 calls)
     h_psi        :    120.50s CPU    146.58s WALL (     767 calls)
     s_psi        :      0.44s CPU      0.53s WALL (     767 calls)
     g_psi        :      5.54s CPU      6.02s WALL (     564 calls)

     Called by h_psi:
     h_psi:calbec :      0.71s CPU      1.00s WALL (     767 calls)
     vloc_psi     :    112.53s CPU    137.42s WALL (     767 calls)
     add_vuspsi   :      0.20s CPU      0.20s WALL (     767 calls)

     General routines
     calbec       :      0.76s CPU      1.06s WALL (     941 calls)
     fft          :      0.18s CPU      0.21s WALL (      77 calls)
     ffts         :      0.00s CPU      0.01s WALL (      12 calls)
     fftw         :      2.80s CPU      3.02s WALL (    9542 calls)
     interpolate  :      0.02s CPU      0.02s WALL (       6 calls)


     PWSCF        :   3m56.47s CPU   4m36.20s WALL


   This run was terminated on:  11:34:21  10Feb2021            

=------------------------------------------------------------------------------=
   JOB DONE.
=------------------------------------------------------------------------------=

     total cpu time spent up to now is      276.9 secs

     End of self-consistent calculation

          k = 0.0000 0.0000 0.0000 (  1243 PWs)   bands (ev):

    -5.9091   5.7618   5.7618   5.7618   8.3057   8.3057   8.3057   8.6345

          k =-0.1250 0.1250-0.1250 (  1218 PWs)   bands (ev):

    -5.7125   4.1728   5.4849   5.4849   8.1292   8.7129   8.7129  10.1035

          k =-0.2500 0.2500-0.2500 (  1215 PWs)   bands (ev):

    -5.1399   1.9092   5.0291   5.0291   7.6395   9.2315   9.2315  12.3278

          k =-0.3750 0.3750-0.3750 (  1203 PWs)   bands (ev):

    -4.2854  -0.0390   4.7099   4.7099   7.2752   9.2145   9.2145  13.5471

          k = 0.5000-0.5000 0.5000 (  1194 PWs)   bands (ev):

    -3.6851  -1.0123   4.6003   4.6003   7.1473   9.1193   9.1193  13.4375

          k = 0.0000 0.2500 0.0000 (  1219 PWs)   bands (ev):

    -5.6462   4.3839   4.9934   4.9934   7.7765   9.3968   9.3968   9.7774

          k =-0.1250 0.3750-0.1250 (  1217 PWs)   bands (ev):

    -5.1952   2.5664   4.4996   4.5509   7.8999   9.2886  10.1442  10.4857

          k =-0.2500 0.5000-0.2500 (  1205 PWs)   bands (ev):

    -4.4138   0.5839   3.9750   4.2373   7.9631   9.2993  10.1780  11.1741

          k = 0.6250-0.3750 0.6250 (  1204 PWs)   bands (ev):

    -3.5980  -0.8129   3.5464   4.2566   7.8843   9.2243   9.8467  12.9970

          k = 0.5000-0.2500 0.5000 (  1199 PWs)   bands (ev):

    -3.8278  -0.4613   3.3778   4.5389   8.0157   9.3549   9.6187  13.4904

          k = 0.3750-0.1250 0.3750 (  1209 PWs)   bands (ev):

    -4.7072   1.2170   3.5359   5.0105   8.3424   9.4021   9.5757  11.8764

          k = 0.2500 0.0000 0.2500 (  1217 PWs)   bands (ev):

    -5.3889   3.0891   4.2091   5.4738   8.6399   8.8496   9.0625  11.0588

          k = 0.0000 0.5000 0.0000 (  1198 PWs)   bands (ev):

    -4.8671   2.2338   3.9507   3.9507   6.9323   8.8948  11.3790  11.3790

          k =-0.1250 0.6250-0.1250 (  1216 PWs)   bands (ev):

    -4.1848   0.8640   3.1994   3.6424   7.1512   8.6708  11.5752  11.9027

          k = 0.7500-0.2500 0.7500 (  1209 PWs)   bands (ev):

    -3.3017  -0.5100   2.3672   3.6430   7.3235  10.1759  11.3026  11.5938

          k = 0.6250-0.1250 0.6250 (  1198 PWs)   bands (ev):

    -3.1117  -0.7515   1.9310   3.9472   7.6262  11.0951  11.1625  12.5670

          k = 0.5000 0.0000 0.5000 (  1203 PWs)   bands (ev):

    -3.9467   0.3557   2.1723   4.4816   8.1810  10.4625  10.7966  11.6858

          k = 0.0000 0.7500 0.0000 (  1206 PWs)   bands (ev):

    -3.6039   0.0751   3.2584   3.2584   6.4468   7.3736  13.5869  13.5870

          k = 0.8750-0.1250 0.8750 (  1205 PWs)   bands (ev):

    -2.7433  -0.9723   2.4767   3.1840   6.7288   7.7642  13.8358  13.8557

          k = 0.7500 0.0000 0.7500 (  1202 PWs)   bands (ev):

    -2.3357  -1.3460   1.6585   3.4310   7.0254   9.8569  13.0434  13.6714

          k = 0.0000-1.0000 0.0000 (  1186 PWs)   bands (ev):

    -1.9203  -1.9203   3.0208   3.0208   6.5553   6.5553  15.4988  15.4989

          k =-0.2500 0.5000 0.0000 (  1216 PWs)   bands (ev):

    -4.6302   1.5068   3.1668   4.3858   8.1980   9.4972   9.9800  11.1380

          k = 0.6250-0.3750 0.8750 (  1205 PWs)   bands (ev):

    -3.7803   0.0200   2.5668   3.9121   8.6075   9.2643  10.6949  11.5820

          k = 0.5000-0.2500 0.7500 (  1198 PWs)   bands (ev):

    -3.1646  -0.8737   2.4329   3.6955   8.7342   8.9240  11.5380  12.7832

          k = 0.7500-0.2500 1.0000 (  1210 PWs)   bands (ev):

    -3.4160  -0.1363   2.5440   3.1247   7.7251   8.4321  11.3731  13.5401

          k = 0.6250-0.1250 0.8750 (  1203 PWs)   bands (ev):

    -2.5842  -1.0650   1.8820   2.9336   8.1625  10.0194  10.9043  13.0170

          k = 0.5000 0.0000 0.7500 (  1203 PWs)   bands (ev):

    -2.9206  -0.7126   1.7242   3.2910   8.6202  10.2448  10.8755  12.6531

          k =-0.2500-1.0000 0.0000 (  1196 PWs)   bands (ev):

    -1.8508  -1.8508   2.4956   2.4956   7.7628   7.7628  13.4106  13.4107

          k =-0.5000-1.0000 0.0000 (  1216 PWs)   bands (ev):

    -1.7750  -1.7750   2.0881   2.0881  10.0381  10.0382  10.6113  10.6113

     the Fermi energy is     6.1499 ev

!    total energy              =     -22.83945479 Ry
     estimated scf accuracy    <          5.4E-09 Ry
     smearing contrib. (-TS)   =      -0.00000000 Ry
     internal energy E=F+TS    =     -22.83945479 Ry

     The total energy is F=E-TS. E is the sum of the following terms:
     one-electron contribution =       4.83571367 Ry
     hartree contribution      =       1.13968413 Ry
     xc contribution           =     -12.25745751 Ry
     ewald contribution        =     -16.55739508 Ry

     convergence has been achieved in   5 iterations

     Writing output data file ./outdir/si.save/

     init_run     :     13.87s CPU     16.38s WALL (       1 calls)
     electrons    :    224.04s CPU    260.35s WALL (       1 calls)

     Called by init_run:
     wfcinit      :      7.72s CPU      9.82s WALL (       1 calls)
     potinit      :      0.15s CPU      0.17s WALL (       1 calls)
     hinit0       :      3.17s CPU      3.41s WALL (       1 calls)

     Called by electrons:
     c_bands      :    154.41s CPU    184.98s WALL (       6 calls)
     sum_band     :     55.01s CPU     60.27s WALL (       6 calls)
     v_of_rho     :      0.64s CPU      0.78s WALL (       6 calls)
     newd         :     16.86s CPU     17.35s WALL (       6 calls)
     mix_rho      :      0.02s CPU      0.03s WALL (       6 calls)

     Called by c_bands:
     init_us_2    :      3.46s CPU      3.80s WALL (     377 calls)
     cegterg      :    150.67s CPU    180.97s WALL (     174 calls)

     Called by *egterg:
     cdiaghg      :      5.76s CPU      8.45s WALL (     709 calls)
     h_psi        :    121.06s CPU    146.85s WALL (     767 calls)
     s_psi        :      0.45s CPU      0.60s WALL (     767 calls)
     g_psi        :      5.45s CPU      6.08s WALL (     564 calls)

     Called by h_psi:
     h_psi:calbec :      0.60s CPU      0.88s WALL (     767 calls)
     vloc_psi     :    113.09s CPU    137.47s WALL (     767 calls)
     add_vuspsi   :      0.20s CPU      0.20s WALL (     767 calls)

     General routines
     calbec       :      0.66s CPU      0.95s WALL (     941 calls)
     fft          :      0.17s CPU      0.21s WALL (      77 calls)
     ffts         :      0.01s CPU      0.01s WALL (      12 calls)
     fftw         :      2.71s CPU      2.78s WALL (    9542 calls)
     interpolate  :      0.02s CPU      0.02s WALL (       6 calls)


     PWSCF        :   3m58.43s CPU   4m37.24s WALL


   This run was terminated on:  11:34:22  10Feb2021            

=------------------------------------------------------------------------------=
   JOB DONE.
=------------------------------------------------------------------------------=

     total cpu time spent up to now is      277.3 secs

     End of self-consistent calculation

          k = 0.0000 0.0000 0.0000 (  1243 PWs)   bands (ev):

    -5.9091   5.7618   5.7618   5.7618   8.3057   8.3057   8.3057   8.6345

          k =-0.1250 0.1250-0.1250 (  1218 PWs)   bands (ev):

    -5.7125   4.1728   5.4849   5.4849   8.1292   8.7129   8.7129  10.1035

          k =-0.2500 0.2500-0.2500 (  1215 PWs)   bands (ev):

    -5.1399   1.9092   5.0291   5.0291   7.6395   9.2315   9.2315  12.3278

          k =-0.3750 0.3750-0.3750 (  1203 PWs)   bands (ev):

    -4.2854  -0.0390   4.7099   4.7099   7.2752   9.2145   9.2145  13.5471

          k = 0.5000-0.5000 0.5000 (  1194 PWs)   bands (ev):

    -3.6851  -1.0123   4.6003   4.6003   7.1473   9.1193   9.1193  13.4375

          k = 0.0000 0.2500 0.0000 (  1219 PWs)   bands (ev):

    -5.6462   4.3839   4.9934   4.9934   7.7765   9.3968   9.3968   9.7774

          k =-0.1250 0.3750-0.1250 (  1217 PWs)   bands (ev):

    -5.1952   2.5664   4.4996   4.5509   7.8999   9.2886  10.1442  10.4857

          k =-0.2500 0.5000-0.2500 (  1205 PWs)   bands (ev):

    -4.4138   0.5839   3.9750   4.2373   7.9631   9.2993  10.1780  11.1741

          k = 0.6250-0.3750 0.6250 (  1204 PWs)   bands (ev):

    -3.5980  -0.8129   3.5464   4.2566   7.8843   9.2243   9.8467  12.9970

          k = 0.5000-0.2500 0.5000 (  1199 PWs)   bands (ev):

    -3.8278  -0.4613   3.3778   4.5389   8.0157   9.3549   9.6187  13.4904

          k = 0.3750-0.1250 0.3750 (  1209 PWs)   bands (ev):

    -4.7072   1.2170   3.5359   5.0105   8.3424   9.4021   9.5757  11.8764

          k = 0.2500 0.0000 0.2500 (  1217 PWs)   bands (ev):

    -5.3889   3.0891   4.2091   5.4738   8.6399   8.8496   9.0625  11.0588

          k = 0.0000 0.5000 0.0000 (  1198 PWs)   bands (ev):

    -4.8671   2.2338   3.9507   3.9507   6.9323   8.8948  11.3790  11.3790

          k =-0.1250 0.6250-0.1250 (  1216 PWs)   bands (ev):

    -4.1848   0.8640   3.1994   3.6424   7.1512   8.6708  11.5752  11.9027

          k = 0.7500-0.2500 0.7500 (  1209 PWs)   bands (ev):

    -3.3017  -0.5100   2.3672   3.6430   7.3235  10.1759  11.3026  11.5938

          k = 0.6250-0.1250 0.6250 (  1198 PWs)   bands (ev):

    -3.1117  -0.7515   1.9310   3.9472   7.6262  11.0951  11.1625  12.5670

          k = 0.5000 0.0000 0.5000 (  1203 PWs)   bands (ev):

    -3.9467   0.3557   2.1723   4.4816   8.1810  10.4625  10.7966  11.6858

          k = 0.0000 0.7500 0.0000 (  1206 PWs)   bands (ev):

    -3.6039   0.0751   3.2584   3.2584   6.4468   7.3736  13.5869  13.5870

          k = 0.8750-0.1250 0.8750 (  1205 PWs)   bands (ev):

    -2.7433  -0.9723   2.4767   3.1840   6.7288   7.7642  13.8358  13.8557

          k = 0.7500 0.0000 0.7500 (  1202 PWs)   bands (ev):

    -2.3357  -1.3460   1.6585   3.4310   7.0254   9.8569  13.0434  13.6714

          k = 0.0000-1.0000 0.0000 (  1186 PWs)   bands (ev):

    -1.9203  -1.9203   3.0208   3.0208   6.5553   6.5553  15.4988  15.4989

          k =-0.2500 0.5000 0.0000 (  1216 PWs)   bands (ev):

    -4.6302   1.5068   3.1668   4.3858   8.1980   9.4972   9.9800  11.1380

          k = 0.6250-0.3750 0.8750 (  1205 PWs)   bands (ev):

    -3.7803   0.0200   2.5668   3.9121   8.6075   9.2643  10.6949  11.5820

          k = 0.5000-0.2500 0.7500 (  1198 PWs)   bands (ev):

    -3.1646  -0.8737   2.4329   3.6955   8.7342   8.9240  11.5380  12.7832

          k = 0.7500-0.2500 1.0000 (  1210 PWs)   bands (ev):

    -3.4160  -0.1363   2.5440   3.1247   7.7251   8.4321  11.3731  13.5401

          k = 0.6250-0.1250 0.8750 (  1203 PWs)   bands (ev):

    -2.5842  -1.0650   1.8820   2.9336   8.1625  10.0194  10.9043  13.0170

          k = 0.5000 0.0000 0.7500 (  1203 PWs)   bands (ev):

    -2.9206  -0.7126   1.7242   3.2910   8.6202  10.2448  10.8755  12.6531

          k =-0.2500-1.0000 0.0000 (  1196 PWs)   bands (ev):

    -1.8508  -1.8508   2.4956   2.4956   7.7628   7.7628  13.4106  13.4107

          k =-0.5000-1.0000 0.0000 (  1216 PWs)   bands (ev):

    -1.7750  -1.7750   2.0881   2.0881  10.0381  10.0382  10.6113  10.6113

     the Fermi energy is     6.1499 ev

!    total energy              =     -22.83945479 Ry
     estimated scf accuracy    <          5.4E-09 Ry
     smearing contrib. (-TS)   =      -0.00000000 Ry
     internal energy E=F+TS    =     -22.83945479 Ry

     The total energy is F=E-TS. E is the sum of the following terms:
     one-electron contribution =       4.83571367 Ry
     hartree contribution      =       1.13968413 Ry
     xc contribution           =     -12.25745751 Ry
     ewald contribution        =     -16.55739508 Ry

     convergence has been achieved in   5 iterations

     Writing output data file ./outdir/si.save/

     init_run     :     13.91s CPU     15.69s WALL (       1 calls)
     electrons    :    223.39s CPU    261.43s WALL (       1 calls)

     Called by init_run:
     wfcinit      :      7.72s CPU      9.21s WALL (       1 calls)
     potinit      :      0.14s CPU      0.15s WALL (       1 calls)
     hinit0       :      3.14s CPU      3.36s WALL (       1 calls)

     Called by electrons:
     c_bands      :    153.82s CPU    186.92s WALL (       6 calls)
     sum_band     :     55.32s CPU     59.57s WALL (       6 calls)
     v_of_rho     :      0.63s CPU      0.65s WALL (       6 calls)
     newd         :     16.57s CPU     17.27s WALL (       6 calls)
     mix_rho      :      0.02s CPU      0.03s WALL (       6 calls)

     Called by c_bands:
     init_us_2    :      3.49s CPU      3.45s WALL (     377 calls)
     cegterg      :    149.89s CPU    182.97s WALL (     174 calls)

     Called by *egterg:
     cdiaghg      :      5.58s CPU      7.80s WALL (     709 calls)
     h_psi        :    120.71s CPU    149.17s WALL (     767 calls)
     s_psi        :      0.39s CPU      0.49s WALL (     767 calls)
     g_psi        :      5.53s CPU      6.31s WALL (     564 calls)

     Called by h_psi:
     h_psi:calbec :      0.68s CPU      0.94s WALL (     767 calls)
     vloc_psi     :    112.68s CPU    139.75s WALL (     767 calls)
     add_vuspsi   :      0.19s CPU      0.19s WALL (     767 calls)

     General routines
     calbec       :      0.73s CPU      0.99s WALL (     941 calls)
     fft          :      0.17s CPU      0.18s WALL (      77 calls)
     ffts         :      0.01s CPU      0.01s WALL (      12 calls)
     fftw         :      2.76s CPU      2.87s WALL (    9542 calls)
     interpolate  :      0.01s CPU      0.02s WALL (       6 calls)


     PWSCF        :   3m57.45s CPU   4m37.33s WALL


   This run was terminated on:  11:34:22  10Feb2021            

=------------------------------------------------------------------------------=
   JOB DONE.
=------------------------------------------------------------------------------=

     total cpu time spent up to now is      277.4 secs

     End of self-consistent calculation

          k = 0.0000 0.0000 0.0000 (  1243 PWs)   bands (ev):

    -5.9091   5.7618   5.7618   5.7618   8.3057   8.3057   8.3057   8.6345

          k =-0.1250 0.1250-0.1250 (  1218 PWs)   bands (ev):

    -5.7125   4.1728   5.4849   5.4849   8.1292   8.7129   8.7129  10.1035

          k =-0.2500 0.2500-0.2500 (  1215 PWs)   bands (ev):

    -5.1399   1.9092   5.0291   5.0291   7.6395   9.2315   9.2315  12.3278

          k =-0.3750 0.3750-0.3750 (  1203 PWs)   bands (ev):

    -4.2854  -0.0390   4.7099   4.7099   7.2752   9.2145   9.2145  13.5471

          k = 0.5000-0.5000 0.5000 (  1194 PWs)   bands (ev):

    -3.6851  -1.0123   4.6003   4.6003   7.1473   9.1193   9.1193  13.4375

          k = 0.0000 0.2500 0.0000 (  1219 PWs)   bands (ev):

    -5.6462   4.3839   4.9934   4.9934   7.7765   9.3968   9.3968   9.7774

          k =-0.1250 0.3750-0.1250 (  1217 PWs)   bands (ev):

    -5.1952   2.5664   4.4996   4.5509   7.8999   9.2886  10.1442  10.4857

          k =-0.2500 0.5000-0.2500 (  1205 PWs)   bands (ev):

    -4.4138   0.5839   3.9750   4.2373   7.9631   9.2993  10.1780  11.1741

          k = 0.6250-0.3750 0.6250 (  1204 PWs)   bands (ev):

    -3.5980  -0.8129   3.5464   4.2566   7.8843   9.2243   9.8467  12.9970

          k = 0.5000-0.2500 0.5000 (  1199 PWs)   bands (ev):

    -3.8278  -0.4613   3.3778   4.5389   8.0157   9.3549   9.6187  13.4904

          k = 0.3750-0.1250 0.3750 (  1209 PWs)   bands (ev):

    -4.7072   1.2170   3.5359   5.0105   8.3424   9.4021   9.5757  11.8764

          k = 0.2500 0.0000 0.2500 (  1217 PWs)   bands (ev):

    -5.3889   3.0891   4.2091   5.4738   8.6399   8.8496   9.0625  11.0588

          k = 0.0000 0.5000 0.0000 (  1198 PWs)   bands (ev):

    -4.8671   2.2338   3.9507   3.9507   6.9323   8.8948  11.3790  11.3790

          k =-0.1250 0.6250-0.1250 (  1216 PWs)   bands (ev):

    -4.1848   0.8640   3.1994   3.6424   7.1512   8.6708  11.5752  11.9027

          k = 0.7500-0.2500 0.7500 (  1209 PWs)   bands (ev):

    -3.3017  -0.5100   2.3672   3.6430   7.3235  10.1759  11.3026  11.5938

          k = 0.6250-0.1250 0.6250 (  1198 PWs)   bands (ev):

    -3.1117  -0.7515   1.9310   3.9472   7.6262  11.0951  11.1625  12.5670

          k = 0.5000 0.0000 0.5000 (  1203 PWs)   bands (ev):

    -3.9467   0.3557   2.1723   4.4816   8.1810  10.4625  10.7966  11.6858

          k = 0.0000 0.7500 0.0000 (  1206 PWs)   bands (ev):

    -3.6039   0.0751   3.2584   3.2584   6.4468   7.3736  13.5869  13.5870

          k = 0.8750-0.1250 0.8750 (  1205 PWs)   bands (ev):

    -2.7433  -0.9723   2.4767   3.1840   6.7288   7.7642  13.8358  13.8557

          k = 0.7500 0.0000 0.7500 (  1202 PWs)   bands (ev):

    -2.3357  -1.3460   1.6585   3.4310   7.0254   9.8569  13.0434  13.6714

          k = 0.0000-1.0000 0.0000 (  1186 PWs)   bands (ev):

    -1.9203  -1.9203   3.0208   3.0208   6.5553   6.5553  15.4988  15.4989

          k =-0.2500 0.5000 0.0000 (  1216 PWs)   bands (ev):

    -4.6302   1.5068   3.1668   4.3858   8.1980   9.4972   9.9800  11.1380

          k = 0.6250-0.3750 0.8750 (  1205 PWs)   bands (ev):

    -3.7803   0.0200   2.5668   3.9121   8.6075   9.2643  10.6949  11.5820

          k = 0.5000-0.2500 0.7500 (  1198 PWs)   bands (ev):

    -3.1646  -0.8737   2.4329   3.6955   8.7342   8.9240  11.5380  12.7832

          k = 0.7500-0.2500 1.0000 (  1210 PWs)   bands (ev):

    -3.4160  -0.1363   2.5440   3.1247   7.7251   8.4321  11.3731  13.5401

          k = 0.6250-0.1250 0.8750 (  1203 PWs)   bands (ev):

    -2.5842  -1.0650   1.8820   2.9336   8.1625  10.0194  10.9043  13.0170

          k = 0.5000 0.0000 0.7500 (  1203 PWs)   bands (ev):

    -2.9206  -0.7126   1.7242   3.2910   8.6202  10.2448  10.8755  12.6531

          k =-0.2500-1.0000 0.0000 (  1196 PWs)   bands (ev):

    -1.8508  -1.8508   2.4956   2.4956   7.7628   7.7628  13.4106  13.4107

          k =-0.5000-1.0000 0.0000 (  1216 PWs)   bands (ev):

    -1.7750  -1.7750   2.0881   2.0881  10.0381  10.0382  10.6113  10.6113

     the Fermi energy is     6.1499 ev

!    total energy              =     -22.83945479 Ry
     estimated scf accuracy    <          5.4E-09 Ry
     smearing contrib. (-TS)   =      -0.00000000 Ry
     internal energy E=F+TS    =     -22.83945479 Ry

     The total energy is F=E-TS. E is the sum of the following terms:
     one-electron contribution =       4.83571367 Ry
     hartree contribution      =       1.13968413 Ry
     xc contribution           =     -12.25745751 Ry
     ewald contribution        =     -16.55739508 Ry

     convergence has been achieved in   5 iterations

     Writing output data file ./outdir/si.save/

     init_run     :     13.94s CPU     16.27s WALL (       1 calls)
     electrons    :    222.26s CPU    260.94s WALL (       1 calls)

     Called by init_run:
     wfcinit      :      7.79s CPU      9.71s WALL (       1 calls)
     potinit      :      0.15s CPU      0.15s WALL (       1 calls)
     hinit0       :      3.23s CPU      3.38s WALL (       1 calls)

     Called by electrons:
     c_bands      :    154.62s CPU    187.78s WALL (       6 calls)
     sum_band     :     54.75s CPU     59.01s WALL (       6 calls)
     v_of_rho     :      0.64s CPU      0.66s WALL (       6 calls)
     newd         :     15.09s CPU     16.54s WALL (       6 calls)
     mix_rho      :      0.02s CPU      0.02s WALL (       6 calls)

     Called by c_bands:
     init_us_2    :      3.34s CPU      3.73s WALL (     377 calls)
     cegterg      :    150.86s CPU    183.80s WALL (     174 calls)

     Called by *egterg:
     cdiaghg      :      5.70s CPU      8.09s WALL (     709 calls)
     h_psi        :    121.48s CPU    150.11s WALL (     767 calls)
     s_psi        :      0.38s CPU      0.48s WALL (     767 calls)
     g_psi        :      5.63s CPU      6.18s WALL (     564 calls)

     Called by h_psi:
     h_psi:calbec :      0.77s CPU      1.13s WALL (     767 calls)
     vloc_psi     :    113.39s CPU    140.48s WALL (     767 calls)
     add_vuspsi   :      0.20s CPU      0.20s WALL (     767 calls)

     General routines
     calbec       :      0.82s CPU      1.21s WALL (     941 calls)
     fft          :      0.18s CPU      0.19s WALL (      77 calls)
     ffts         :      0.01s CPU      0.01s WALL (      12 calls)
     fftw         :      2.79s CPU      2.93s WALL (    9542 calls)
     interpolate  :      0.02s CPU      0.02s WALL (       6 calls)


     PWSCF        :   3m56.34s CPU   4m37.39s WALL


   This run was terminated on:  11:34:22  10Feb2021            

=------------------------------------------------------------------------------=
   JOB DONE.
=------------------------------------------------------------------------------=
