    4    4  400    1
  0.5270948E+02  0.4296119E-09  0.2464790E-09  0.1991097E-08  0.5000000E-15
  1.000000000000000E-004
  CAR 
 gr                                      
     16    247     12
 
  0.0000000E+00  0.0000000E+00  0.0000000E+00  0.1157407E-02
    1      -22.216804
    2      -17.074055
    3      -15.944529
    4      -10.330482
    5       -9.080279
    6       -5.834953
    7       -5.772777
    8       -5.160557
    9       -1.100121
   10        0.528240
   11        1.328721
   12        1.713830
 
  0.4166667E-01  0.0000000E+00  0.0000000E+00  0.2314815E-02
    1      -22.206662
    2      -17.227025
    3      -15.776354
    4      -10.318383
    5       -9.070254
    6       -5.878056
    7       -5.794795
    8       -5.225311
    9       -1.019425
   10        0.541988
   11        1.342653
   12        1.727932
 
  0.8333333E-01  0.0000000E+00  0.0000000E+00  0.2314815E-02
    1      -22.176242
    2      -17.549602
    3      -15.408245
    4      -10.282105
    5       -9.040231
    6       -6.005526
    7       -5.859645
    8       -5.405333
    9       -0.791746
   10        0.583235
   11        1.384448
   12        1.770240
 
  0.1250000E+00  0.0000000E+00  0.0000000E+00  0.2314815E-02
    1      -22.125563
    2      -17.916246
    3      -14.965993
    4      -10.221706
    5       -8.990362
    6       -6.212176
    7       -5.963919
    8       -5.668708
    9       -0.449504
   10        0.651989
   11        1.454090
   12        1.840754
 
  0.1666667E+00  0.0000000E+00  0.0000000E+00  0.2314815E-02
    1      -22.054658
    2      -18.288180
    3      -14.488806
    4      -10.137283
    5       -8.920910
    6       -6.490302
    7       -6.102535
    8       -5.983440
    9       -0.025553
   10        0.748259
   11        1.551559
   12        1.939478
 
  0.2083333E+00  0.0000000E+00  0.0000000E+00  0.2314815E-02
    1      -21.963578
    2      -18.652845
    3      -13.989865
    4      -10.028978
    5       -8.832252
    6       -6.830747
    7       -6.325438
    8       -6.269413
    9        0.454789
   10        0.872048
   11        1.676818
   12        2.066411
 
  0.2500000E+00  0.0000000E+00  0.0000000E+00  0.2314815E-02
    1      -21.852385
    2      -19.005116
    3      -13.475115
    4       -9.896979
    5       -8.724892
    6       -7.223884
    7       -6.678501
    8       -6.458126
    9        0.973671
   10        1.023346
   11        1.829813
   12        2.221554
 
  0.2916667E+00  0.0000000E+00  0.0000000E+00  0.2314815E-02
    1      -21.721161
    2      -19.342460
    3      -12.948138
    4       -9.741532
    5       -8.599483
    6       -7.660353
    7       -7.032044
    8       -6.662405
    9        1.202130
   10        1.518357
   11        2.010462
   12        2.404905
 
  0.3333333E+00  0.0000000E+00  0.0000000E+00  0.2314815E-02
    1      -21.570002
    2      -19.663431
    3      -12.411684
    4       -9.562949
    5       -8.456838
    6       -8.131519
    7       -7.379089
    8       -6.876460
    9        1.408366
   10        2.078962
   11        2.218629
   12        2.616458
 
  0.3750000E+00  0.0000000E+00  0.0000000E+00  0.2314815E-02
    1      -21.399026
    2      -19.967107
    3      -11.868279
    4       -9.361621
    5       -8.629678
    6       -8.297966
    7       -7.714924
    8       -7.095149
    9        1.642003
   10        2.454075
   11        2.646169
   12        2.856206
 
  0.4166667E+00  0.0000000E+00  0.0000000E+00  0.2314815E-02
    1      -21.208371
    2      -20.252846
    3      -11.320505
    4       -9.148112
    5       -9.138037
    6       -8.124102
    7       -8.036271
    8       -7.314017
    9        1.902970
   10        2.716298
   11        3.124135
   12        3.217122
 
  0.4583333E+00  0.0000000E+00  0.0000000E+00  0.2314815E-02
    1      -20.998202
    2      -20.520172
    3      -10.771175
    4       -9.681028
    5       -8.892814
    6       -8.340782
    7       -7.936752
    8       -7.529277
    9        2.191173
   10        2.848698
   11        3.003962
   12        3.420221
 
  0.5000000E+00  0.0000000E+00  0.0000000E+00  0.1157407E-02
    1      -20.768723
    2      -20.768723
    3      -10.223465
    4      -10.223465
    5       -8.626729
    6       -8.626729
    7       -7.737741
    8       -7.737741
    9        2.506481
   10        2.506481
   11        3.311478
   12        3.311478
 
  0.0000000E+00  0.2777778E-01  0.0000000E+00  0.2314815E-02
    1      -22.203101
    2      -17.062268
    3      -15.932894
    4      -10.314135
    5       -9.142252
    6       -5.864231
    7       -5.830094
    8       -5.143911
    9       -1.103719
   10        0.546824
   11        1.347535
   12        1.732874
 
  0.4166667E-01  0.2777778E-01  0.0000000E+00  0.4629630E-02
    1      -22.192960
    2      -17.215081
    3      -15.764926
    4      -10.302040
    5       -9.132212
    6       -5.914548
    7       -5.844238
    8       -5.208803
    9       -1.023000
   10        0.560572
   11        1.361467
   12        1.746976
 
  0.8333333E-01  0.2777778E-01  0.0000000E+00  0.4629630E-02
    1      -22.162544
    2      -17.537405
    3      -15.397219
    4      -10.265775
    5       -9.102141
    6       -6.046434
    7       -5.902812
    8       -5.389144
    9       -0.795346
   10        0.601820
   11        1.403259
   12        1.789284
 
  0.1250000E+00  0.2777778E-01  0.0000000E+00  0.4629630E-02
    1      -22.111872
    2      -17.903824
    3      -14.955450
    4      -10.205396
    5       -9.052190
    6       -6.252084
    7       -6.005339
    8       -5.652851
    9       -0.453350
   10        0.670578
   11        1.472898
   12        1.859800
 
  0.1666667E+00  0.2777778E-01  0.0000000E+00  0.4629630E-02
    1      -22.040978
    2      -18.275565
    3      -14.478827
    4      -10.121002
    5       -8.982614
    6       -6.526241
    7       -6.144670
    8       -5.967829
    9       -0.029960
   10        0.766853
   11        1.570361
   12        1.958524
 
  0.2083333E+00  0.2777778E-01  0.0000000E+00  0.4629630E-02
    1      -21.949913
    2      -18.640067
    3      -13.980548
    4      -10.012733
    5       -8.893783
    6       -6.861394
    7       -6.313435
    8       -6.309974
    9        0.449485
   10        0.890648
   11        1.695613
   12        2.085459
 
  0.2500000E+00  0.2777778E-01  0.0000000E+00  0.4629630E-02
    1      -21.838738
    2      -18.992197
    3      -13.466582
    4       -9.880780
    5       -8.786190
    6       -7.248888
    7       -6.663097
    8       -6.504498
    9        0.967160
   10        1.041954
   11        1.848601
   12        2.240604
 
  0.2916667E+00  0.2777778E-01  0.0000000E+00  0.4629630E-02
    1      -21.707536
    2      -19.329420
    3      -12.940534
    4       -9.725387
    5       -8.660473
    6       -7.679914
    7       -7.016639
    8       -6.711198
    9        1.220750
   10        1.510368
   11        2.029243
   12        2.423958
 
  0.3333333E+00  0.2777778E-01  0.0000000E+00  0.4629630E-02
    1      -21.556404
    2      -19.650287
    3      -12.405188
    4       -9.546865
    5       -8.517430
    6       -8.146116
    7       -7.363643
    8       -6.927537
    9        1.426998
   10        2.069305
   11        2.237405
   12        2.635515
 
  0.3750000E+00  0.2777778E-01  0.0000000E+00  0.4629630E-02
    1      -21.385459
    2      -19.953873
    3      -11.863105
    4       -9.345606
    5       -8.639902
    6       -8.358047
    7       -7.699411
    8       -7.148270
    9        1.660648
   10        2.472852
   11        2.634862
   12        2.875268
 
  0.4166667E+00  0.2777778E-01  0.0000000E+00  0.4629630E-02
    1      -21.194840
    2      -20.239534
    3      -11.316910
    4       -9.154569
    5       -9.122098
    6       -8.183536
    7       -8.020677
    8       -7.368906
    9        1.921631
   10        2.735088
   11        3.143203
   12        3.192153
 
  0.4583333E+00  0.2777778E-01  0.0000000E+00  0.4629630E-02
    1      -20.984715
    2      -20.506793
    3      -10.769471
    4       -9.684283
    5       -8.876957
    6       -8.325100
    7       -7.995373
    8       -7.585657
    9        2.209854
   10        2.867450
   11        3.022781
   12        3.439300
 
  0.5000000E+00  0.2777778E-01  0.0000000E+00  0.2314815E-02
    1      -20.755285
    2      -20.755285
    3      -10.224022
    4      -10.224022
    5       -8.610958
    6       -8.610958
    7       -7.795355
    8       -7.795355
    9        2.525189
   10        2.525189
   11        3.330229
   12        3.330229
 
  0.0000000E+00  0.5555556E-01  0.0000000E+00  0.2314815E-02
    1      -22.162001
    2      -17.026911
    3      -15.898137
    4      -10.265127
    5       -9.323200
    6       -5.997447
    7       -5.951413
    8       -5.093993
    9       -1.115341
   10        0.602578
   11        1.403973
   12        1.790007
 
  0.4166667E-01  0.5555556E-01  0.0000000E+00  0.4629630E-02
    1      -22.151865
    2      -17.179261
    3      -15.730784
    4      -10.253045
    5       -9.313109
    6       -6.052258
    7       -5.959133
    8       -5.159313
    9       -1.034544
   10        0.616327
   11        1.417902
   12        1.804110
 
  0.8333333E-01  0.5555556E-01  0.0000000E+00  0.4629630E-02
    1      -22.121462
    2      -17.500835
    3      -15.364292
    4      -10.216817
    5       -9.282880
    6       -6.185290
    7       -6.011101
    8       -5.340636
    9       -0.806962
   10        0.657578
   11        1.459686
   12        1.846419
 
  0.1250000E+00  0.5555556E-01  0.0000000E+00  0.4629630E-02
    1      -22.070812
    2      -17.866580
    3      -14.923987
    4      -10.156501
    5       -9.232655
    6       -6.383991
    7       -6.112458
    8       -5.605357
    9       -0.465709
   10        0.726340
   11        1.529312
   12        1.916935
 
  0.1666667E+00  0.5555556E-01  0.0000000E+00  0.4629630E-02
    1      -21.999952
    2      -18.237744
    3      -14.449087
    4      -10.072195
    5       -9.162669
    6       -6.644575
    7       -6.255708
    8       -5.921090
    9       -0.044035
   10        0.822626
   11        1.626758
   12        2.015662
 
  0.2083333E+00  0.5555556E-01  0.0000000E+00  0.4629630E-02
    1      -21.908929
    2      -18.601752
    3      -13.952841
    4       -9.964039
    5       -9.073267
    6       -6.962396
    7       -6.431659
    8       -6.263676
    9        0.432672
   10        0.946437
   11        1.751989
   12        2.142601
 
  0.2500000E+00  0.5555556E-01  0.0000000E+00  0.4629630E-02
    1      -21.797808
    2      -18.953458
    3      -13.441287
    4       -9.832224
    5       -8.964905
    6       -7.331411
    7       -6.631354
    8       -6.616980
    9        0.946654
   10        1.097765
   11        1.904953
   12        2.297752
 
  0.2916667E+00  0.5555556E-01  0.0000000E+00  0.4629630E-02
    1      -21.666674
    2      -19.290317
    3      -12.918113
    4       -9.676993
    5       -8.838174
    6       -7.744594
    7       -6.970515
    8       -6.846831
    9        1.276586
   10        1.485340
   11        2.085572
   12        2.481113
 
  0.3333333E+00  0.5555556E-01  0.0000000E+00  0.4629630E-02
    1      -21.515621
    2      -19.610870
    3      -12.386201
    4       -9.498659
    5       -8.693814
    6       -8.194566
    7       -7.317389
    8       -7.071335
    9        1.482864
   10        2.039143
   11        2.293718
   12        2.692680
 
  0.3750000E+00  0.5555556E-01  0.0000000E+00  0.4629630E-02
    1      -21.344770
    2      -19.914185
    3      -11.848236
    4       -9.297610
    5       -8.674132
    6       -8.532740
    7       -7.652950
    8       -7.299271
    9        1.716548
   10        2.529166
   11        2.599508
   12        2.932445
 
  0.4166667E+00  0.5555556E-01  0.0000000E+00  0.4629630E-02
    1      -21.154261
    2      -20.199612
    3      -11.306989
    4       -9.176623
    5       -9.074334
    6       -8.356079
    7       -7.973967
    8       -7.526047
    9        1.977569
   10        2.791441
   11        3.154358
   12        3.200398
 
  0.4583333E+00  0.5555556E-01  0.0000000E+00  0.4629630E-02
    1      -20.944265
    2      -20.466669
    3      -10.765501
    4       -9.696065
    5       -8.829443
    6       -8.278123
    7       -8.165205
    8       -7.747911
    9        2.265838
   10        2.923597
   11        3.079229
   12        3.496523
 
  0.5000000E+00  0.5555556E-01  0.0000000E+00  0.2314815E-02
    1      -20.714986
    2      -20.714986
    3      -10.227210
    4      -10.227210
    5       -8.563710
    6       -8.563710
    7       -7.961799
    8       -7.961799
    9        2.581237
   10        2.581237
   11        3.386441
   12        3.386441
 
  0.0000000E+00  0.8333333E-01  0.0000000E+00  0.2314815E-02
    1      -22.093541
    2      -16.967995
    3      -15.840734
    4      -10.183562
    5       -9.609587
    6       -6.262448
    7       -6.094575
    8       -5.010866
    9       -1.137466
   10        0.695512
   11        1.498011
   12        1.885233
 
  0.4166667E-01  0.8333333E-01  0.0000000E+00  0.4629630E-02
    1      -22.083411
    2      -17.119605
    3      -15.674390
    4      -10.171501
    5       -9.599393
    6       -6.309692
    7       -6.106778
    8       -5.076941
    9       -1.056518
   10        0.709260
   11        1.511935
   12        1.899335
 
  0.8333333E-01  0.8333333E-01  0.0000000E+00  0.4629630E-02
    1      -22.053031
    2      -17.439955
    3      -15.309938
    4      -10.135338
    5       -9.568850
    6       -6.436437
    7       -6.156290
    8       -5.259990
    9       -0.829023
   10        0.750509
   11        1.553705
   12        1.941644
 
  0.1250000E+00  0.8333333E-01  0.0000000E+00  0.4629630E-02
    1      -22.002420
    2      -17.804580
    3      -14.872144
    4      -10.075130
    5       -9.518078
    6       -6.624920
    7       -6.254783
    8       -5.526478
    9       -0.489032
   10        0.819273
   11        1.623307
   12        2.012161
 
  0.1666667E+00  0.8333333E-01  0.0000000E+00  0.4629630E-02
    1      -21.931614
    2      -18.174780
    3      -14.400229
    4       -9.990974
    5       -9.447277
    6       -6.866652
    7       -6.401179
    8       -5.843511
    9       -0.070310
   10        0.915565
   11        1.720720
   12        2.110891
 
  0.2083333E+00  0.8333333E-01  0.0000000E+00  0.4629630E-02
    1      -21.840664
    2      -18.537960
    3      -13.907539
    4       -9.883012
    5       -9.356736
    6       -7.157423
    7       -6.587525
    8       -6.186844
    9        0.401673
   10        1.039388
   11        1.845911
   12        2.237834
 
  0.2500000E+00  0.8333333E-01  0.0000000E+00  0.4629630E-02
    1      -21.729635
    2      -18.888956
    3      -13.400236
    4       -9.751433
    5       -9.246841
    6       -7.494409
    7       -6.802946
    8       -6.540445
    9        0.909280
   10        1.190737
   11        1.998831
   12        2.392991
 
  0.2916667E+00  0.8333333E-01  0.0000000E+00  0.4629630E-02
    1      -21.598610
    2      -19.225203
    3      -12.882168
    4       -9.596482
    5       -9.118085
    6       -7.874462
    7       -7.036439
    8       -6.893954
    9        1.369586
   10        1.440151
   11        2.179405
   12        2.576362
 
  0.3333333E+00  0.8333333E-01  0.0000000E+00  0.4629630E-02
    1      -21.447690
    2      -19.545229
    3      -12.356414
    4       -9.418469
    5       -8.971084
    6       -8.293203
    7       -7.278666
    8       -7.240591
    9        1.575897
   10        1.985013
   11        2.387517
   12        2.787941
 
  0.3750000E+00  0.8333333E-01  0.0000000E+00  0.4629630E-02
    1      -21.276997
    2      -19.848090
    3      -11.825901
    4       -9.217783
    5       -8.806597
    6       -8.745068
    7       -7.575787
    8       -7.522508
    9        1.809617
   10        2.536019
   11        2.622961
   12        3.027721
 
  0.4166667E+00  0.8333333E-01  0.0000000E+00  0.4629630E-02
    1      -21.086673
    2      -20.133124
    3      -11.293706
    4       -9.223898
    5       -8.994907
    6       -8.625551
    7       -7.896368
    8       -7.762793
    9        2.070677
   10        2.885301
   11        3.084175
   12        3.295695
 
  0.4583333E+00  0.8333333E-01  0.0000000E+00  0.4629630E-02
    1      -20.876893
    2      -20.399842
    3      -10.763235
    4       -9.723564
    5       -8.750448
    6       -8.429080
    7       -8.200056
    8       -7.995753
    9        2.358990
   10        3.016893
   11        3.173274
   12        3.589959
 
  0.5000000E+00  0.8333333E-01  0.0000000E+00  0.2314815E-02
    1      -20.647866
    2      -20.647866
    3      -10.238371
    4      -10.238371
    5       -8.485172
    6       -8.485172
    7       -8.218573
    8       -8.218573
    9        2.674445
   10        2.674445
   11        3.479924
   12        3.479924
 
  0.0000000E+00  0.1111111E+00  0.0000000E+00  0.2314815E-02
    1      -21.997780
    2      -16.885541
    3      -15.761581
    4      -10.069614
    5       -9.982562
    6       -6.608176
    7       -6.290597
    8       -4.894634
    9       -1.174203
   10        0.825634
   11        1.629611
   12        2.018552
 
  0.4166667E-01  0.1111111E+00  0.0000000E+00  0.4629630E-02
    1      -21.987661
    2      -17.036184
    3      -15.596614
    4      -10.057584
    5       -9.972187
    6       -6.654417
    7       -6.299774
    8       -4.961868
    9       -1.092980
   10        0.839378
   11        1.643528
   12        2.032654
 
  0.8333333E-01  0.1111111E+00  0.0000000E+00  0.4629630E-02
    1      -21.957313
    2      -17.354875
    3      -15.235065
    4      -10.021515
    5       -9.941088
    6       -6.779810
    7       -6.339131
    8       -5.147538
    9       -0.865519
   10        0.880618
   11        1.685274
   12        2.074961
 
  0.1250000E+00  0.1111111E+00  0.0000000E+00  0.4629630E-02
    1      -21.906756
    2      -17.717946
    3      -14.800959
    4       -9.961464
    5       -9.889346
    6       -6.963731
    7       -6.424787
    8       -5.416671
    9       -0.527317
   10        0.949368
   11        1.754837
   12        2.145478
 
  0.1666667E+00  0.1111111E+00  0.0000000E+00  0.4629630E-02
    1      -21.836027
    2      -18.086791
    3      -14.333514
    4       -9.877528
    5       -9.817094
    6       -7.193028
    7       -6.562466
    8       -5.735612
    9       -0.112904
   10        1.045648
   11        1.852197
   12        2.244206
 
  0.2083333E+00  0.1111111E+00  0.0000000E+00  0.4629630E-02
    1      -21.745178
    2      -18.448801
    3      -13.846223
    4       -9.769849
    5       -9.724521
    6       -7.460658
    7       -6.749214
    8       -6.080019
    9        0.352158
   10        1.169467
   11        1.977320
   12        2.371151
 
  0.2500000E+00  0.1111111E+00  0.0000000E+00  0.4629630E-02
    1      -21.634278
    2      -18.798791
    3      -13.345465
    4       -9.638616
    5       -9.611871
    6       -7.763487
    7       -6.976256
    8       -6.434019
    9        0.850431
   10        1.320819
   11        2.130162
   12        2.526314
 
  0.2916667E+00  0.1111111E+00  0.0000000E+00  0.4629630E-02
    1      -21.503408
    2      -19.134171
    3      -12.835369
    4       -9.484076
    5       -9.479446
    6       -8.100899
    7       -7.231283
    8       -6.787457
    9        1.369849
   10        1.499680
   11        2.310655
   12        2.709692
 
  0.3333333E+00  0.1111111E+00  0.0000000E+00  0.4629630E-02
    1      -21.352675
    2      -19.453451
    3      -12.319379
    4       -9.327603
    5       -9.306535
    6       -8.473201
    7       -7.500935
    8       -7.133715
    9        1.706010
   10        1.901528
   11        2.518697
   12        2.921282
 
  0.3750000E+00  0.1111111E+00  0.0000000E+00  0.4629630E-02
    1      -21.182203
    2      -19.755666
    3      -11.800890
    4       -9.156761
    5       -9.106381
    6       -8.879797
    7       -7.773359
    8       -7.468351
    9        1.939750
   10        2.438306
   11        2.754114
   12        3.161077
 
  0.4166667E+00  0.1111111E+00  0.0000000E+00  0.4629630E-02
    1      -20.992139
    2      -20.040146
    3      -11.283572
    4       -9.318013
    5       -8.967406
    6       -8.884094
    7       -8.039847
    8       -7.788273
    9        2.200828
   10        2.973420
   11        3.016542
   12        3.429069
 
  0.4583333E+00  0.1111111E+00  0.0000000E+00  0.4629630E-02
    1      -20.782666
    2      -20.306385
    3      -10.771576
    4       -9.783200
    5       -8.760115
    6       -8.640274
    7       -8.294958
    8       -8.091262
    9        2.489157
   10        3.147097
   11        3.304843
   12        3.494007
 
  0.5000000E+00  0.1111111E+00  0.0000000E+00  0.2314815E-02
    1      -20.553995
    2      -20.553995
    3      -10.269658
    4      -10.269658
    5       -8.535618
    6       -8.535618
    7       -8.375677
    8       -8.375677
    9        2.804626
   10        2.804626
   11        3.609812
   12        3.609812
 
  0.0000000E+00  0.1388889E+00  0.0000000E+00  0.2314815E-02
    1      -21.874807
    2      -16.779577
    3      -15.662196
    4      -10.421333
    5       -9.923534
    6       -7.016628
    7       -6.535319
    8       -4.745445
    9       -1.231180
   10        0.992947
   11        1.798718
   12        2.189968
 
  0.4166667E-01  0.1388889E+00  0.0000000E+00  0.4629630E-02
    1      -21.864702
    2      -16.929106
    3      -15.498941
    4      -10.410648
    5       -9.911547
    6       -7.063658
    7       -6.538967
    8       -4.814371
    9       -1.149465
   10        1.006683
   11        1.812622
   12        2.204069
 
  0.8333333E-01  0.1388889E+00  0.0000000E+00  0.4629630E-02
    1      -21.834395
    2      -17.245770
    3      -15.141247
    4      -10.378597
    5       -9.875606
    6       -7.191040
    7       -6.562715
    8       -5.003815
    9       -0.921828
   10        1.047899
   11        1.854330
   12        2.246373
 
  0.1250000E+00  0.1388889E+00  0.0000000E+00  0.4629630E-02
    1      -21.783908
    2      -17.606864
    3      -14.712267
    4      -10.325186
    5       -9.815768
    6       -7.375488
    7       -6.626995
    8       -5.276669
    9       -0.585900
   10        1.116616
   11        1.923831
   12        2.316884
 
  0.1666667E+00  0.1388889E+00  0.0000000E+00  0.4629630E-02
    1      -21.713279
    2      -17.973953
    3      -14.251210
    4      -10.250420
    5       -9.732131
    6       -7.600381
    7       -6.743327
    8       -5.598223
    9       -0.177262
   10        1.212856
   11        2.021103
   12        2.415608
 
  0.2083333E+00  0.1388889E+00  0.0000000E+00  0.4629630E-02
    1      -21.622562
    2      -18.334437
    3      -13.771810
    4      -10.154289
    5       -9.624838
    6       -7.855750
    7       -6.914177
    8       -5.944046
    9        0.278461
   10        1.336638
   11        2.146114
   12        2.542549
 
  0.2500000E+00  0.1388889E+00  0.0000000E+00  0.4629630E-02
    1      -21.511826
    2      -18.683111
    3      -13.280826
    4      -10.036751
    5       -9.494080
    6       -8.136017
    7       -7.135421
    8       -6.298522
    9        0.764152
   10        1.487961
   11        2.298821
   12        2.697711
 
  0.2916667E+00  0.1388889E+00  0.0000000E+00  0.4629630E-02
    1      -21.381158
    2      -19.017358
    3      -12.782910
    4       -9.897700
    5       -9.340100
    6       -8.438914
    7       -7.398024
    8       -6.651792
    9        1.268165
   10        1.666803
   11        2.479163
   12        2.881092
 
  0.3333333E+00  0.1388889E+00  0.0000000E+00  0.4629630E-02
    1      -21.230667
    2      -19.335660
    3      -12.282213
    4       -9.736935
    5       -9.163207
    6       -8.764951
    7       -7.689408
    8       -6.997474
    9        1.782084
   10        1.873120
   11        2.687056
   12        3.092690
 
  0.3750000E+00  0.1388889E+00  0.0000000E+00  0.4629630E-02
    1      -21.060481
    2      -19.637034
    3      -11.783057
    4       -9.554117
    5       -9.116674
    6       -8.963784
    7       -7.995007
    8       -7.331294
    9        2.106849
   10        2.299364
   11        2.922369
   12        3.332496
 
  0.4166667E+00  0.1388889E+00  0.0000000E+00  0.4629630E-02
    1      -20.870757
    2      -19.920788
    3      -11.290294
    4       -9.497111
    5       -9.348759
    6       -8.742308
    7       -8.300450
    8       -7.650277
    9        2.367911
   10        2.814497
   11        3.184858
   12        3.600503
 
  0.4583333E+00  0.1388889E+00  0.0000000E+00  0.4629630E-02
    1      -20.661680
    2      -20.186402
    3      -10.809455
    4       -9.907649
    5       -9.120305
    6       -8.594064
    7       -8.499372
    8       -7.952281
    9        2.656210
   10        3.314036
   11        3.322050
   12        3.473725
 
  0.5000000E+00  0.1388889E+00  0.0000000E+00  0.2314815E-02
    1      -20.433473
    2      -20.433473
    3      -10.346597
    4      -10.346597
    5       -8.868468
    6       -8.868468
    7       -8.235716
    8       -8.235716
    9        2.971632
   10        2.971632
   11        3.757731
   12        3.757738
 
  0.0000000E+00  0.1666667E+00  0.0000000E+00  0.2314815E-02
    1      -21.724739
    2      -16.650143
    3      -15.545127
    4      -10.905313
    5       -9.745658
    6       -7.471084
    7       -6.823742
    8       -4.563498
    9       -1.315282
   10        1.197440
   11        2.005248
   12        2.399484
 
  0.4166667E-01  0.1666667E+00  0.0000000E+00  0.4629630E-02
    1      -21.714651
    2      -16.798536
    3      -15.383893
    4      -10.894096
    5       -9.733727
    6       -7.519678
    7       -6.820636
    8       -4.634872
    9       -1.232662
   10        1.211164
   11        2.019132
   12        2.413583
 
  0.8333333E-01  0.1666667E+00  0.0000000E+00  0.4629630E-02
    1      -21.684395
    2      -17.112904
    3      -15.031207
    4      -10.860399
    5       -9.697954
    6       -7.650833
    7       -6.825583
    8       -4.829661
    9       -1.004306
   10        1.252342
   11        2.060781
   12        2.455880
 
  0.1250000E+00  0.1666667E+00  0.0000000E+00  0.4629630E-02
    1      -21.633995
    2      -17.471612
    3      -14.609325
    4      -10.804080
    5       -9.638396
    6       -7.838741
    7       -6.863091
    8       -5.107614
    9       -0.670973
   10        1.320999
   11        2.130179
   12        2.526381
 
  0.1666667E+00  0.1666667E+00  0.0000000E+00  0.4629630E-02
    1      -21.563489
    2      -17.836530
    3      -14.157470
    4      -10.724875
    5       -9.555154
    6       -8.064200
    7       -6.949551
    8       -5.432613
    9       -0.269611
   10        1.417164
   11        2.227304
   12        2.625092
 
  0.2083333E+00  0.1666667E+00  0.0000000E+00  0.4629630E-02
    1      -21.472933
    2      -18.195110
    3      -13.689813
    4      -10.622349
    5       -9.448370
    6       -8.315266
    7       -7.092025
    8       -5.780198
    9        0.174201
   10        1.540865
   11        2.352121
   12        2.752021
 
  0.2500000E+00  0.1666667E+00  0.0000000E+00  0.4629630E-02
    1      -21.362399
    2      -18.542133
    3      -13.213850
    4      -10.495828
    5       -9.318236
    6       -8.584584
    7       -7.290658
    8       -6.135168
    9        0.643886
   10        1.692111
   11        2.504581
   12        2.907173
 
  0.2916667E+00  0.1666667E+00  0.0000000E+00  0.4629630E-02
    1      -21.231980
    2      -18.874958
    3      -12.735290
    4      -10.344300
    5       -9.164997
    6       -8.867896
    7       -7.540418
    8       -6.488087
    9        1.128419
   10        1.870885
   11        2.684622
   12        3.090550
 
  0.3333333E+00  0.1666667E+00  0.0000000E+00  0.4629630E-02
    1      -21.081787
    2      -19.192036
    3      -12.259713
    4      -10.166315
    5       -9.163474
    6       -8.988962
    7       -7.832304
    8       -6.832898
    9        1.620001
   10        2.077145
   11        2.892159
   12        3.302148
 
  0.3750000E+00  0.1666667E+00  0.0000000E+00  0.4629630E-02
    1      -20.911957
    2      -19.492357
    3      -11.793241
    4       -9.959962
    5       -9.472023
    6       -8.790512
    7       -8.154294
    8       -7.165552
    9        2.112728
   10        2.310820
   11        3.127086
   12        3.541960
 
  0.4166667E+00  0.1666667E+00  0.0000000E+00  0.4629630E-02
    1      -20.722654
    2      -19.775203
    3      -11.342614
    4       -9.796632
    5       -9.723130
    6       -8.570118
    7       -8.492156
    8       -7.483226
    9        2.571820
   10        2.601853
   11        3.389261
   12        3.809976
 
  0.4583333E+00  0.1666667E+00  0.0000000E+00  0.4629630E-02
    1      -20.514070
    2      -20.040038
    3      -10.914519
    4      -10.142231
    5       -9.454419
    6       -8.830548
    7       -8.328366
    8       -7.783878
    9        2.860038
   10        3.083353
   11        3.517591
   12        3.678489
 
  0.5000000E+00  0.1666667E+00  0.0000000E+00  0.2314815E-02
    1      -20.286440
    2      -20.286440
    3      -10.513939
    4      -10.513939
    5       -9.154969
    6       -9.154969
    7       -8.065981
    8       -8.065981
    9        3.175346
   10        3.175346
   11        3.553641
   12        3.553642
 