<?xml version="1.0" encoding="ISO-8859-1"?>
<modeling>
 <generator>
  <i name="program" type="string">vasp </i>
  <i name="version" type="string">5.3.5  </i>
  <i name="subversion" type="string">31Mar14 (build Mar 02 2015 18:14:16) complex                          parallel </i>
  <i name="platform" type="string">LinuxIFC </i>
  <i name="date" type="string">2018 08 07 </i>
  <i name="time" type="string">16:22:58 </i>
 </generator>
 <incar>
  <i type="string" name="SYSTEM">  gr</i>
  <i type="string" name="PREC">accurate : accuracy</i>
  <i type="string" name="ALGO"> FAST.</i>
  <i type="int" name="NELM">   100</i>
  <i type="int" name="NELMDL">    -3</i>
  <i type="int" name="NELMIN">     5</i>
  <i type="int" name="IBRION">     1</i>
  <i name="EDIFF">      0.00000000</i>
  <i name="EDIFFG">     -0.00000100</i>
  <i type="int" name="NSW">   400</i>
  <i type="int" name="ISIF">     2</i>
  <i name="ENCUT">   2000.00000000</i>
  <i type="int" name="ISMEAR">     0</i>
  <i name="SIGMA">      0.05000000</i>
  <i type="int" name="NWRITE">     2</i>
  <i type="logical" name="LWAVE"> F  </i>
  <i type="logical" name="LCHARG"> F  </i>
  <i type="int" name="NELM">   100</i>
 </incar>
 <kpoints>
  <generation param="Gamma">
   <v type="int" name="divisions">      24       36        1 </v>
   <v name="usershift">      0.00000000       0.00000000       0.00000000 </v>
   <v name="genvec1">      0.04166667       0.00000000       0.00000000 </v>
   <v name="genvec2">      0.00000000       0.02777778       0.00000000 </v>
   <v name="genvec3">      0.00000000       0.00000000       1.00000000 </v>
   <v name="shift">      0.00000000       0.00000000       0.00000000 </v>
  </generation>
  <varray name="kpointlist" >
   <v>       0.00000000       0.00000000       0.00000000 </v>
   <v>       0.04166667       0.00000000       0.00000000 </v>
   <v>       0.08333333       0.00000000       0.00000000 </v>
   <v>       0.12500000       0.00000000       0.00000000 </v>
   <v>       0.16666667       0.00000000       0.00000000 </v>
   <v>       0.20833333       0.00000000       0.00000000 </v>
   <v>       0.25000000       0.00000000       0.00000000 </v>
   <v>       0.29166667       0.00000000       0.00000000 </v>
   <v>       0.33333333       0.00000000       0.00000000 </v>
   <v>       0.37500000       0.00000000       0.00000000 </v>
   <v>       0.41666667       0.00000000       0.00000000 </v>
   <v>       0.45833333       0.00000000       0.00000000 </v>
   <v>       0.50000000       0.00000000       0.00000000 </v>
   <v>       0.00000000       0.02777778       0.00000000 </v>
   <v>       0.04166667       0.02777778       0.00000000 </v>
   <v>       0.08333333       0.02777778       0.00000000 </v>
   <v>       0.12500000       0.02777778       0.00000000 </v>
   <v>       0.16666667       0.02777778       0.00000000 </v>
   <v>       0.20833333       0.02777778       0.00000000 </v>
   <v>       0.25000000       0.02777778       0.00000000 </v>
   <v>       0.29166667       0.02777778       0.00000000 </v>
   <v>       0.33333333       0.02777778       0.00000000 </v>
   <v>       0.37500000       0.02777778       0.00000000 </v>
   <v>       0.41666667       0.02777778       0.00000000 </v>
   <v>       0.45833333       0.02777778       0.00000000 </v>
   <v>       0.50000000       0.02777778       0.00000000 </v>
   <v>       0.00000000       0.05555556       0.00000000 </v>
   <v>       0.04166667       0.05555556       0.00000000 </v>
   <v>       0.08333333       0.05555556       0.00000000 </v>
   <v>       0.12500000       0.05555556       0.00000000 </v>
   <v>       0.16666667       0.05555556       0.00000000 </v>
   <v>       0.20833333       0.05555556       0.00000000 </v>
   <v>       0.25000000       0.05555556       0.00000000 </v>
   <v>       0.29166667       0.05555556       0.00000000 </v>
   <v>       0.33333333       0.05555556       0.00000000 </v>
   <v>       0.37500000       0.05555556       0.00000000 </v>
   <v>       0.41666667       0.05555556       0.00000000 </v>
   <v>       0.45833333       0.05555556       0.00000000 </v>
   <v>       0.50000000       0.05555556       0.00000000 </v>
   <v>       0.00000000       0.08333333       0.00000000 </v>
   <v>       0.04166667       0.08333333       0.00000000 </v>
   <v>       0.08333333       0.08333333       0.00000000 </v>
   <v>       0.12500000       0.08333333       0.00000000 </v>
   <v>       0.16666667       0.08333333       0.00000000 </v>
   <v>       0.20833333       0.08333333       0.00000000 </v>
   <v>       0.25000000       0.08333333       0.00000000 </v>
   <v>       0.29166667       0.08333333       0.00000000 </v>
   <v>       0.33333333       0.08333333       0.00000000 </v>
   <v>       0.37500000       0.08333333       0.00000000 </v>
   <v>       0.41666667       0.08333333       0.00000000 </v>
   <v>       0.45833333       0.08333333       0.00000000 </v>
   <v>       0.50000000       0.08333333       0.00000000 </v>
   <v>       0.00000000       0.11111111       0.00000000 </v>
   <v>       0.04166667       0.11111111       0.00000000 </v>
   <v>       0.08333333       0.11111111       0.00000000 </v>
   <v>       0.12500000       0.11111111       0.00000000 </v>
   <v>       0.16666667       0.11111111       0.00000000 </v>
   <v>       0.20833333       0.11111111       0.00000000 </v>
   <v>       0.25000000       0.11111111       0.00000000 </v>
   <v>       0.29166667       0.11111111       0.00000000 </v>
   <v>       0.33333333       0.11111111       0.00000000 </v>
   <v>       0.37500000       0.11111111       0.00000000 </v>
   <v>       0.41666667       0.11111111       0.00000000 </v>
   <v>       0.45833333       0.11111111       0.00000000 </v>
   <v>       0.50000000       0.11111111       0.00000000 </v>
   <v>       0.00000000       0.13888889       0.00000000 </v>
   <v>       0.04166667       0.13888889       0.00000000 </v>
   <v>       0.08333333       0.13888889       0.00000000 </v>
   <v>       0.12500000       0.13888889       0.00000000 </v>
   <v>       0.16666667       0.13888889       0.00000000 </v>
   <v>       0.20833333       0.13888889       0.00000000 </v>
   <v>       0.25000000       0.13888889       0.00000000 </v>
   <v>       0.29166667       0.13888889       0.00000000 </v>
   <v>       0.33333333       0.13888889       0.00000000 </v>
   <v>       0.37500000       0.13888889       0.00000000 </v>
   <v>       0.41666667       0.13888889       0.00000000 </v>
   <v>       0.45833333       0.13888889       0.00000000 </v>
   <v>       0.50000000       0.13888889       0.00000000 </v>
   <v>       0.00000000       0.16666667       0.00000000 </v>
   <v>       0.04166667       0.16666667       0.00000000 </v>
   <v>       0.08333333       0.16666667       0.00000000 </v>
   <v>       0.12500000       0.16666667       0.00000000 </v>
   <v>       0.16666667       0.16666667       0.00000000 </v>
   <v>       0.20833333       0.16666667       0.00000000 </v>
   <v>       0.25000000       0.16666667       0.00000000 </v>
   <v>       0.29166667       0.16666667       0.00000000 </v>
   <v>       0.33333333       0.16666667       0.00000000 </v>
   <v>       0.37500000       0.16666667       0.00000000 </v>
   <v>       0.41666667       0.16666667       0.00000000 </v>
   <v>       0.45833333       0.16666667       0.00000000 </v>
   <v>       0.50000000       0.16666667       0.00000000 </v>
   <v>       0.00000000       0.19444444       0.00000000 </v>
   <v>       0.04166667       0.19444444       0.00000000 </v>
   <v>       0.08333333       0.19444444       0.00000000 </v>
   <v>       0.12500000       0.19444444       0.00000000 </v>
   <v>       0.16666667       0.19444444       0.00000000 </v>
   <v>       0.20833333       0.19444444       0.00000000 </v>
   <v>       0.25000000       0.19444444       0.00000000 </v>
   <v>       0.29166667       0.19444444       0.00000000 </v>
   <v>       0.33333333       0.19444444       0.00000000 </v>
   <v>       0.37500000       0.19444444       0.00000000 </v>
   <v>       0.41666667       0.19444444       0.00000000 </v>
   <v>       0.45833333       0.19444444       0.00000000 </v>
   <v>       0.50000000       0.19444444       0.00000000 </v>
   <v>       0.00000000       0.22222222       0.00000000 </v>
   <v>       0.04166667       0.22222222       0.00000000 </v>
   <v>       0.08333333       0.22222222       0.00000000 </v>
   <v>       0.12500000       0.22222222       0.00000000 </v>
   <v>       0.16666667       0.22222222       0.00000000 </v>
   <v>       0.20833333       0.22222222       0.00000000 </v>
   <v>       0.25000000       0.22222222       0.00000000 </v>
   <v>       0.29166667       0.22222222       0.00000000 </v>
   <v>       0.33333333       0.22222222       0.00000000 </v>
   <v>       0.37500000       0.22222222       0.00000000 </v>
   <v>       0.41666667       0.22222222       0.00000000 </v>
   <v>       0.45833333       0.22222222       0.00000000 </v>
   <v>       0.50000000       0.22222222       0.00000000 </v>
   <v>       0.00000000       0.25000000       0.00000000 </v>
   <v>       0.04166667       0.25000000       0.00000000 </v>
   <v>       0.08333333       0.25000000       0.00000000 </v>
   <v>       0.12500000       0.25000000       0.00000000 </v>
   <v>       0.16666667       0.25000000       0.00000000 </v>
   <v>       0.20833333       0.25000000       0.00000000 </v>
   <v>       0.25000000       0.25000000       0.00000000 </v>
   <v>       0.29166667       0.25000000       0.00000000 </v>
   <v>       0.33333333       0.25000000       0.00000000 </v>
   <v>       0.37500000       0.25000000       0.00000000 </v>
   <v>       0.41666667       0.25000000       0.00000000 </v>
   <v>       0.45833333       0.25000000       0.00000000 </v>
   <v>       0.50000000       0.25000000       0.00000000 </v>
   <v>       0.00000000       0.27777778       0.00000000 </v>
   <v>       0.04166667       0.27777778       0.00000000 </v>
   <v>       0.08333333       0.27777778       0.00000000 </v>
   <v>       0.12500000       0.27777778       0.00000000 </v>
   <v>       0.16666667       0.27777778       0.00000000 </v>
   <v>       0.20833333       0.27777778       0.00000000 </v>
   <v>       0.25000000       0.27777778       0.00000000 </v>
   <v>       0.29166667       0.27777778       0.00000000 </v>
   <v>       0.33333333       0.27777778       0.00000000 </v>
   <v>       0.37500000       0.27777778       0.00000000 </v>
   <v>       0.41666667       0.27777778       0.00000000 </v>
   <v>       0.45833333       0.27777778       0.00000000 </v>
   <v>       0.50000000       0.27777778       0.00000000 </v>
   <v>       0.00000000       0.30555556       0.00000000 </v>
   <v>       0.04166667       0.30555556       0.00000000 </v>
   <v>       0.08333333       0.30555556       0.00000000 </v>
   <v>       0.12500000       0.30555556       0.00000000 </v>
   <v>       0.16666667       0.30555556       0.00000000 </v>
   <v>       0.20833333       0.30555556       0.00000000 </v>
   <v>       0.25000000       0.30555556       0.00000000 </v>
   <v>       0.29166667       0.30555556       0.00000000 </v>
   <v>       0.33333333       0.30555556       0.00000000 </v>
   <v>       0.37500000       0.30555556       0.00000000 </v>
   <v>       0.41666667       0.30555556       0.00000000 </v>
   <v>       0.45833333       0.30555556       0.00000000 </v>
   <v>       0.50000000       0.30555556       0.00000000 </v>
   <v>       0.00000000       0.33333333       0.00000000 </v>
   <v>       0.04166667       0.33333333       0.00000000 </v>
   <v>       0.08333333       0.33333333       0.00000000 </v>
   <v>       0.12500000       0.33333333       0.00000000 </v>
   <v>       0.16666667       0.33333333       0.00000000 </v>
   <v>       0.20833333       0.33333333       0.00000000 </v>
   <v>       0.25000000       0.33333333       0.00000000 </v>
   <v>       0.29166667       0.33333333       0.00000000 </v>
   <v>       0.33333333       0.33333333       0.00000000 </v>
   <v>       0.37500000       0.33333333       0.00000000 </v>
   <v>       0.41666667       0.33333333       0.00000000 </v>
   <v>       0.45833333       0.33333333       0.00000000 </v>
   <v>       0.50000000       0.33333333       0.00000000 </v>
   <v>       0.00000000       0.36111111       0.00000000 </v>
   <v>       0.04166667       0.36111111       0.00000000 </v>
   <v>       0.08333333       0.36111111       0.00000000 </v>
   <v>       0.12500000       0.36111111       0.00000000 </v>
   <v>       0.16666667       0.36111111       0.00000000 </v>
   <v>       0.20833333       0.36111111       0.00000000 </v>
   <v>       0.25000000       0.36111111       0.00000000 </v>
   <v>       0.29166667       0.36111111       0.00000000 </v>
   <v>       0.33333333       0.36111111       0.00000000 </v>
   <v>       0.37500000       0.36111111       0.00000000 </v>
   <v>       0.41666667       0.36111111       0.00000000 </v>
   <v>       0.45833333       0.36111111       0.00000000 </v>
   <v>       0.50000000       0.36111111       0.00000000 </v>
   <v>       0.00000000       0.38888889       0.00000000 </v>
   <v>       0.04166667       0.38888889       0.00000000 </v>
   <v>       0.08333333       0.38888889       0.00000000 </v>
   <v>       0.12500000       0.38888889       0.00000000 </v>
   <v>       0.16666667       0.38888889       0.00000000 </v>
   <v>       0.20833333       0.38888889       0.00000000 </v>
   <v>       0.25000000       0.38888889       0.00000000 </v>
   <v>       0.29166667       0.38888889       0.00000000 </v>
   <v>       0.33333333       0.38888889       0.00000000 </v>
   <v>       0.37500000       0.38888889       0.00000000 </v>
   <v>       0.41666667       0.38888889       0.00000000 </v>
   <v>       0.45833333       0.38888889       0.00000000 </v>
   <v>       0.50000000       0.38888889       0.00000000 </v>
   <v>       0.00000000       0.41666667       0.00000000 </v>
   <v>       0.04166667       0.41666667       0.00000000 </v>
   <v>       0.08333333       0.41666667       0.00000000 </v>
   <v>       0.12500000       0.41666667       0.00000000 </v>
   <v>       0.16666667       0.41666667       0.00000000 </v>
   <v>       0.20833333       0.41666667       0.00000000 </v>
   <v>       0.25000000       0.41666667       0.00000000 </v>
   <v>       0.29166667       0.41666667       0.00000000 </v>
   <v>       0.33333333       0.41666667       0.00000000 </v>
   <v>       0.37500000       0.41666667       0.00000000 </v>
   <v>       0.41666667       0.41666667       0.00000000 </v>
   <v>       0.45833333       0.41666667       0.00000000 </v>
   <v>       0.50000000       0.41666667       0.00000000 </v>
   <v>       0.00000000       0.44444444       0.00000000 </v>
   <v>       0.04166667       0.44444444       0.00000000 </v>
   <v>       0.08333333       0.44444444       0.00000000 </v>
   <v>       0.12500000       0.44444444       0.00000000 </v>
   <v>       0.16666667       0.44444444       0.00000000 </v>
   <v>       0.20833333       0.44444444       0.00000000 </v>
   <v>       0.25000000       0.44444444       0.00000000 </v>
   <v>       0.29166667       0.44444444       0.00000000 </v>
   <v>       0.33333333       0.44444444       0.00000000 </v>
   <v>       0.37500000       0.44444444       0.00000000 </v>
   <v>       0.41666667       0.44444444       0.00000000 </v>
   <v>       0.45833333       0.44444444       0.00000000 </v>
   <v>       0.50000000       0.44444444       0.00000000 </v>
   <v>       0.00000000       0.47222222       0.00000000 </v>
   <v>       0.04166667       0.47222222       0.00000000 </v>
   <v>       0.08333333       0.47222222       0.00000000 </v>
   <v>       0.12500000       0.47222222       0.00000000 </v>
   <v>       0.16666667       0.47222222       0.00000000 </v>
   <v>       0.20833333       0.47222222       0.00000000 </v>
   <v>       0.25000000       0.47222222       0.00000000 </v>
   <v>       0.29166667       0.47222222       0.00000000 </v>
   <v>       0.33333333       0.47222222       0.00000000 </v>
   <v>       0.37500000       0.47222222       0.00000000 </v>
   <v>       0.41666667       0.47222222       0.00000000 </v>
   <v>       0.45833333       0.47222222       0.00000000 </v>
   <v>       0.50000000       0.47222222       0.00000000 </v>
   <v>       0.00000000       0.50000000       0.00000000 </v>
   <v>       0.04166667       0.50000000       0.00000000 </v>
   <v>       0.08333333       0.50000000       0.00000000 </v>
   <v>       0.12500000       0.50000000       0.00000000 </v>
   <v>       0.16666667       0.50000000       0.00000000 </v>
   <v>       0.20833333       0.50000000       0.00000000 </v>
   <v>       0.25000000       0.50000000       0.00000000 </v>
   <v>       0.29166667       0.50000000       0.00000000 </v>
   <v>       0.33333333       0.50000000       0.00000000 </v>
   <v>       0.37500000       0.50000000       0.00000000 </v>
   <v>       0.41666667       0.50000000       0.00000000 </v>
   <v>       0.45833333       0.50000000       0.00000000 </v>
   <v>       0.50000000       0.50000000       0.00000000 </v>
  </varray>
  <varray name="weights" >
   <v>       0.00115741 </v>
   <v>       0.00231481 </v>
   <v>       0.00231481 </v>
   <v>       0.00231481 </v>
   <v>       0.00231481 </v>
   <v>       0.00231481 </v>
   <v>       0.00231481 </v>
   <v>       0.00231481 </v>
   <v>       0.00231481 </v>
   <v>       0.00231481 </v>
   <v>       0.00231481 </v>
   <v>       0.00231481 </v>
   <v>       0.00115741 </v>
   <v>       0.00231481 </v>
   <v>       0.00462963 </v>
   <v>       0.00462963 </v>
   <v>       0.00462963 </v>
   <v>       0.00462963 </v>
   <v>       0.00462963 </v>
   <v>       0.00462963 </v>
   <v>       0.00462963 </v>
   <v>       0.00462963 </v>
   <v>       0.00462963 </v>
   <v>       0.00462963 </v>
   <v>       0.00462963 </v>
   <v>       0.00231481 </v>
   <v>       0.00231481 </v>
   <v>       0.00462963 </v>
   <v>       0.00462963 </v>
   <v>       0.00462963 </v>
   <v>       0.00462963 </v>
   <v>       0.00462963 </v>
   <v>       0.00462963 </v>
   <v>       0.00462963 </v>
   <v>       0.00462963 </v>
   <v>       0.00462963 </v>
   <v>       0.00462963 </v>
   <v>       0.00462963 </v>
   <v>       0.00231481 </v>
   <v>       0.00231481 </v>
   <v>       0.00462963 </v>
   <v>       0.00462963 </v>
   <v>       0.00462963 </v>
   <v>       0.00462963 </v>
   <v>       0.00462963 </v>
   <v>       0.00462963 </v>
   <v>       0.00462963 </v>
   <v>       0.00462963 </v>
   <v>       0.00462963 </v>
   <v>       0.00462963 </v>
   <v>       0.00462963 </v>
   <v>       0.00231481 </v>
   <v>       0.00231481 </v>
   <v>       0.00462963 </v>
   <v>       0.00462963 </v>
   <v>       0.00462963 </v>
   <v>       0.00462963 </v>
   <v>       0.00462963 </v>
   <v>       0.00462963 </v>
   <v>       0.00462963 </v>
   <v>       0.00462963 </v>
   <v>       0.00462963 </v>
   <v>       0.00462963 </v>
   <v>       0.00462963 </v>
   <v>       0.00231481 </v>
   <v>       0.00231481 </v>
   <v>       0.00462963 </v>
   <v>       0.00462963 </v>
   <v>       0.00462963 </v>
   <v>       0.00462963 </v>
   <v>       0.00462963 </v>
   <v>       0.00462963 </v>
   <v>       0.00462963 </v>
   <v>       0.00462963 </v>
   <v>       0.00462963 </v>
   <v>       0.00462963 </v>
   <v>       0.00462963 </v>
   <v>       0.00231481 </v>
   <v>       0.00231481 </v>
   <v>       0.00462963 </v>
   <v>       0.00462963 </v>
   <v>       0.00462963 </v>
   <v>       0.00462963 </v>
   <v>       0.00462963 </v>
   <v>       0.00462963 </v>
   <v>       0.00462963 </v>
   <v>       0.00462963 </v>
   <v>       0.00462963 </v>
   <v>       0.00462963 </v>
   <v>       0.00462963 </v>
   <v>       0.00231481 </v>
   <v>       0.00231481 </v>
   <v>       0.00462963 </v>
   <v>       0.00462963 </v>
   <v>       0.00462963 </v>
   <v>       0.00462963 </v>
   <v>       0.00462963 </v>
   <v>       0.00462963 </v>
   <v>       0.00462963 </v>
   <v>       0.00462963 </v>
   <v>       0.00462963 </v>
   <v>       0.00462963 </v>
   <v>       0.00462963 </v>
   <v>       0.00231481 </v>
   <v>       0.00231481 </v>
   <v>       0.00462963 </v>
   <v>       0.00462963 </v>
   <v>       0.00462963 </v>
   <v>       0.00462963 </v>
   <v>       0.00462963 </v>
   <v>       0.00462963 </v>
   <v>       0.00462963 </v>
   <v>       0.00462963 </v>
   <v>       0.00462963 </v>
   <v>       0.00462963 </v>
   <v>       0.00462963 </v>
   <v>       0.00231481 </v>
   <v>       0.00231481 </v>
   <v>       0.00462963 </v>
   <v>       0.00462963 </v>
   <v>       0.00462963 </v>
   <v>       0.00462963 </v>
   <v>       0.00462963 </v>
   <v>       0.00462963 </v>
   <v>       0.00462963 </v>
   <v>       0.00462963 </v>
   <v>       0.00462963 </v>
   <v>       0.00462963 </v>
   <v>       0.00462963 </v>
   <v>       0.00231481 </v>
   <v>       0.00231481 </v>
   <v>       0.00462963 </v>
   <v>       0.00462963 </v>
   <v>       0.00462963 </v>
   <v>       0.00462963 </v>
   <v>       0.00462963 </v>
   <v>       0.00462963 </v>
   <v>       0.00462963 </v>
   <v>       0.00462963 </v>
   <v>       0.00462963 </v>
   <v>       0.00462963 </v>
   <v>       0.00462963 </v>
   <v>       0.00231481 </v>
   <v>       0.00231481 </v>
   <v>       0.00462963 </v>
   <v>       0.00462963 </v>
   <v>       0.00462963 </v>
   <v>       0.00462963 </v>
   <v>       0.00462963 </v>
   <v>       0.00462963 </v>
   <v>       0.00462963 </v>
   <v>       0.00462963 </v>
   <v>       0.00462963 </v>
   <v>       0.00462963 </v>
   <v>       0.00462963 </v>
   <v>       0.00231481 </v>
   <v>       0.00231481 </v>
   <v>       0.00462963 </v>
   <v>       0.00462963 </v>
   <v>       0.00462963 </v>
   <v>       0.00462963 </v>
   <v>       0.00462963 </v>
   <v>       0.00462963 </v>
   <v>       0.00462963 </v>
   <v>       0.00462963 </v>
   <v>       0.00462963 </v>
   <v>       0.00462963 </v>
   <v>       0.00462963 </v>
   <v>       0.00231481 </v>
   <v>       0.00231481 </v>
   <v>       0.00462963 </v>
   <v>       0.00462963 </v>
   <v>       0.00462963 </v>
   <v>       0.00462963 </v>
   <v>       0.00462963 </v>
   <v>       0.00462963 </v>
   <v>       0.00462963 </v>
   <v>       0.00462963 </v>
   <v>       0.00462963 </v>
   <v>       0.00462963 </v>
   <v>       0.00462963 </v>
   <v>       0.00231481 </v>
   <v>       0.00231481 </v>
   <v>       0.00462963 </v>
   <v>       0.00462963 </v>
   <v>       0.00462963 </v>
   <v>       0.00462963 </v>
   <v>       0.00462963 </v>
   <v>       0.00462963 </v>
   <v>       0.00462963 </v>
   <v>       0.00462963 </v>
   <v>       0.00462963 </v>
   <v>       0.00462963 </v>
   <v>       0.00462963 </v>
   <v>       0.00231481 </v>
   <v>       0.00231481 </v>
   <v>       0.00462963 </v>
   <v>       0.00462963 </v>
   <v>       0.00462963 </v>
   <v>       0.00462963 </v>
   <v>       0.00462963 </v>
   <v>       0.00462963 </v>
   <v>       0.00462963 </v>
   <v>       0.00462963 </v>
   <v>       0.00462963 </v>
   <v>       0.00462963 </v>
   <v>       0.00462963 </v>
   <v>       0.00231481 </v>
   <v>       0.00231481 </v>
   <v>       0.00462963 </v>
   <v>       0.00462963 </v>
   <v>       0.00462963 </v>
   <v>       0.00462963 </v>
   <v>       0.00462963 </v>
   <v>       0.00462963 </v>
   <v>       0.00462963 </v>
   <v>       0.00462963 </v>
   <v>       0.00462963 </v>
   <v>       0.00462963 </v>
   <v>       0.00462963 </v>
   <v>       0.00231481 </v>
   <v>       0.00231481 </v>
   <v>       0.00462963 </v>
   <v>       0.00462963 </v>
   <v>       0.00462963 </v>
   <v>       0.00462963 </v>
   <v>       0.00462963 </v>
   <v>       0.00462963 </v>
   <v>       0.00462963 </v>
   <v>       0.00462963 </v>
   <v>       0.00462963 </v>
   <v>       0.00462963 </v>
   <v>       0.00462963 </v>
   <v>       0.00231481 </v>
   <v>       0.00115741 </v>
   <v>       0.00231481 </v>
   <v>       0.00231481 </v>
   <v>       0.00231481 </v>
   <v>       0.00231481 </v>
   <v>       0.00231481 </v>
   <v>       0.00231481 </v>
   <v>       0.00231481 </v>
   <v>       0.00231481 </v>
   <v>       0.00231481 </v>
   <v>       0.00231481 </v>
   <v>       0.00231481 </v>
   <v>       0.00115741 </v>
  </varray>
 </kpoints>
 <parameters>
  <separator name="general" >
   <i type="string" name="SYSTEM">gr</i>
   <i type="logical" name="LCOMPAT"> F  </i>
  </separator>
  <separator name="electronic" >
   <i type="string" name="PREC">accura</i>
   <i name="ENMAX">   2000.00000000</i>
   <i name="ENAUG">    644.87300000</i>
   <i name="EDIFF">      0.00000000</i>
   <i type="int" name="IALGO">    68</i>
   <i type="int" name="IWAVPR">    11</i>
   <i type="int" name="NBANDS">    12</i>
   <i name="NELECT">     16.00000000</i>
   <i type="int" name="TURBO">     0</i>
   <i type="int" name="IRESTART">     0</i>
   <i type="int" name="NREBOOT">     0</i>
   <i type="int" name="NMIN">     0</i>
   <i name="EREF">      0.00000000</i>
   <separator name="electronic smearing" >
    <i type="int" name="ISMEAR">     0</i>
    <i name="SIGMA">      0.05000000</i>
    <i name="KSPACING">      0.50000000</i>
    <i type="logical" name="KGAMMA"> T  </i>
   </separator>
   <separator name="electronic projectors" >
    <i type="logical" name="LREAL"> F  </i>
    <v name="ROPT">      0.00000000</v>
    <i type="int" name="LMAXPAW">  -100</i>
    <i type="int" name="LMAXMIX">     2</i>
    <i type="logical" name="NLSPLINE"> F  </i>
   </separator>
   <separator name="electronic startup" >
    <i type="int" name="ISTART">     0</i>
    <i type="int" name="ICHARG">     2</i>
    <i type="int" name="INIWAV">     1</i>
   </separator>
   <separator name="electronic spin" >
    <i type="int" name="ISPIN">     1</i>
    <i type="logical" name="LNONCOLLINEAR"> F  </i>
    <v name="MAGMOM">      1.00000000      1.00000000      1.00000000      1.00000000</v>
    <i name="NUPDOWN">     -1.00000000</i>
    <i type="logical" name="LSORBIT"> F  </i>
    <v name="SAXIS">      0.00000000      0.00000000      1.00000000</v>
    <i type="logical" name="LSPIRAL"> F  </i>
    <v name="QSPIRAL">      0.00000000      0.00000000      0.00000000</v>
    <i type="logical" name="LZEROZ"> F  </i>
   </separator>
   <separator name="electronic exchange-correlation" >
    <i type="logical" name="LASPH"> F  </i>
    <i type="logical" name="LMETAGGA"> F  </i>
   </separator>
   <separator name="electronic convergence" >
    <i type="int" name="NELM">   100</i>
    <i type="int" name="NELMDL">    -3</i>
    <i type="int" name="NELMIN">     5</i>
    <i name="ENINI">   2000.00000000</i>
    <separator name="electronic convergence detail" >
     <i type="logical" name="LDIAG"> T  </i>
     <i type="logical" name="LSUBROT"> F  </i>
     <i name="WEIMIN">      0.00100000</i>
     <i name="EBREAK">      0.00000000</i>
     <i name="DEPER">      0.30000000</i>
     <i type="int" name="NRMM">     4</i>
     <i name="TIME">      0.40000000</i>
    </separator>
   </separator>
   <separator name="electronic mixer" >
    <i name="AMIX">      0.40000000</i>
    <i name="BMIX">      1.00000000</i>
    <i name="AMIN">      0.10000000</i>
    <i name="AMIX_MAG">      1.60000000</i>
    <i name="BMIX_MAG">      1.00000000</i>
    <separator name="electronic mixer details" >
     <i type="int" name="IMIX">     4</i>
     <i type="int" name="MAXMIX">   -45</i>
     <i name="WC">    100.00000000</i>
     <i type="int" name="INIMIX">     1</i>
     <i type="int" name="MIXPRE">     1</i>
     <i type="int" name="MREMOVE">     5</i>
    </separator>
   </separator>
   <separator name="electronic dipolcorrection" >
    <i type="logical" name="LDIPOL"> F  </i>
    <i type="logical" name="LMONO"> F  </i>
    <i type="int" name="IDIPOL">     0</i>
    <i name="EPSILON">      1.00000000</i>
    <v name="DIPOL">   -100.00000000   -100.00000000   -100.00000000</v>
    <i name="EFIELD">      0.00000000</i>
   </separator>
  </separator>
  <separator name="grids" >
   <i type="int" name="NGX">    64</i>
   <i type="int" name="NGY">    36</i>
   <i type="int" name="NGZ">   294</i>
   <i type="int" name="NGXF">   128</i>
   <i type="int" name="NGYF">    72</i>
   <i type="int" name="NGZF">   588</i>
   <i type="logical" name="ADDGRID"> F  </i>
  </separator>
  <separator name="ionic" >
   <i type="int" name="NSW">   400</i>
   <i type="int" name="IBRION">     1</i>
   <i type="int" name="ISIF">     2</i>
   <i name="PSTRESS">      0.00000000</i>
   <i name="EDIFFG">     -0.00000100</i>
   <i type="int" name="NFREE">     0</i>
   <i name="POTIM">      0.50000000</i>
   <i name="SMASS">     -3.00000000</i>
   <i name="SCALEE">      1.00000000</i>
  </separator>
  <separator name="ionic md" >
   <i name="TEBEG">      0.00010000</i>
   <i name="TEEND">      0.00010000</i>
   <i type="int" name="NBLOCK">     1</i>
   <i type="int" name="KBLOCK">   400</i>
   <i type="int" name="NPACO">   256</i>
   <i name="APACO">     16.00000000</i>
  </separator>
  <separator name="symmetry" >
   <i type="int" name="ISYM">     2</i>
   <i name="SYMPREC">      0.00001000</i>
  </separator>
  <separator name="dos" >
   <i type="logical" name="LORBIT"> F  </i>
   <v name="RWIGS">     -1.00000000</v>
   <i type="int" name="NEDOS">   301</i>
   <i name="EMIN">     10.00000000</i>
   <i name="EMAX">    -10.00000000</i>
   <i name="EFERMI">      0.00000000</i>
  </separator>
  <separator name="writing" >
   <i type="int" name="NWRITE">     2</i>
   <i type="logical" name="LWAVE"> F  </i>
   <i type="logical" name="LCHARG"> F  </i>
   <i type="logical" name="LPARD"> F  </i>
   <i type="logical" name="LVTOT"> F  </i>
   <i type="logical" name="LVHAR"> F  </i>
   <i type="logical" name="LELF"> F  </i>
   <i type="logical" name="LOPTICS"> F  </i>
   <v name="STM">      0.00000000      0.00000000      0.00000000      0.00000000      0.00000000      0.00000000      0.00000000</v>
  </separator>
  <separator name="performance" >
   <i type="int" name="NPAR">     4</i>
   <i type="int" name="NSIM">     4</i>
   <i type="int" name="NBLK">    -1</i>
   <i type="logical" name="LPLANE"> T  </i>
   <i type="logical" name="LSCALAPACK"> F  </i>
   <i type="logical" name="LSCAAWARE"> F  </i>
   <i type="logical" name="LSCALU"> F  </i>
   <i type="logical" name="LASYNC"> F  </i>
   <i type="logical" name="LORBITALREAL"> F  </i>
  </separator>
  <separator name="miscellaneous" >
   <i type="int" name="IDIOT">     3</i>
   <i type="logical" name="LMUSIC"> F  </i>
   <v name="POMASS">     12.01100000</v>
   <v name="DARWINR">      0.00000000</v>
   <v name="DARWINV">      1.00000000</v>
   <i type="logical" name="LCORR"> T  </i>
  </separator>
  <i type="logical" name="GGA_COMPAT"> T  </i>
  <i type="logical" name="LBERRY"> F  </i>
  <i type="int" name="ICORELEVEL">     0</i>
  <i type="logical" name="LDAU"> F  </i>
  <i type="int" name="I_CONSTRAINED_M">     0</i>
  <separator name="electronic exchange-correlation" >
   <i type="string" name="GGA">--</i>
   <i type="int" name="VOSKOWN">     0</i>
   <i type="logical" name="LHFCALC"> F  </i>
   <i type="string" name="PRECFOCK"></i>
   <i type="logical" name="LSYMGRAD"> F  </i>
   <i type="logical" name="LHFONE"> F  </i>
   <i type="logical" name="LRHFCALC"> F  </i>
   <i type="logical" name="LTHOMAS"> F  </i>
   <i type="logical" name="LMODELHF"> F  </i>
   <i name="ENCUT4O">     -1.00000000</i>
   <i type="int" name="EXXOEP">     0</i>
   <i type="int" name="FOURORBIT">     0</i>
   <i name="AEXX">      0.00000000</i>
   <i name="HFALPHA">      0.00000000</i>
   <i name="MCALPHA">      0.00000000</i>
   <i name="ALDAX">      1.00000000</i>
   <i name="AGGAX">      1.00000000</i>
   <i name="ALDAC">      1.00000000</i>
   <i name="AGGAC">      1.00000000</i>
   <i type="int" name="NKREDX">     1</i>
   <i type="int" name="NKREDY">     1</i>
   <i type="int" name="NKREDZ">     1</i>
   <i type="logical" name="SHIFTRED"> F  </i>
   <i type="logical" name="ODDONLY"> F  </i>
   <i type="logical" name="EVENONLY"> F  </i>
   <i type="int" name="LMAXFOCK">     0</i>
   <i type="int" name="NMAXFOCKAE">     0</i>
   <i type="logical" name="LFOCKAEDFT"> F  </i>
   <i name="HFSCREEN">      0.00000000</i>
   <i name="HFSCREENC">      0.00000000</i>
   <i type="int" name="NBANDSGWLOW">     0</i>
  </separator>
  <separator name="vdW DFT" >
   <i type="logical" name="LUSE_VDW"> F  </i>
   <i name="Zab_VDW">     -0.84910000</i>
   <i name="PARAM1">      0.12340000</i>
   <i name="PARAM2">      1.00000000</i>
   <i name="PARAM3">      0.00000000</i>
  </separator>
  <separator name="model GW" >
   <i type="int" name="MODEL_GW">     0</i>
   <i name="MODEL_EPS0">     31.62568521</i>
   <i name="MODEL_ALPHA">      1.00000000</i>
  </separator>
  <separator name="linear response parameters" >
   <i type="logical" name="LEPSILON"> F  </i>
   <i type="logical" name="LRPA"> F  </i>
   <i type="logical" name="LNABLA"> F  </i>
   <i type="logical" name="LVEL"> F  </i>
   <i type="int" name="KINTER">     0</i>
   <i name="CSHIFT">      0.10000000</i>
   <i name="OMEGAMAX">     -1.00000000</i>
   <i name="DEG_THRESHOLD">      0.00200000</i>
  </separator>
  <separator name="orbital magnetization" >
   <i type="logical" name="NUCIND"> F  </i>
   <v name="MAGPOS">      0.00000000      0.00000000      0.00000000</v>
   <i type="logical" name="LNICSALL"> T  </i>
   <i type="logical" name="ORBITALMAG"> F  </i>
   <i type="logical" name="LMAGBLOCH"> F  </i>
   <i type="logical" name="LCHIMAG"> F  </i>
   <i type="logical" name="LGAUGE"> T  </i>
   <i type="int" name="MAGATOM">     0</i>
   <v name="MAGDIPOL">      0.00000000      0.00000000      0.00000000</v>
   <v name="AVECCONST">      0.00000000      0.00000000      0.00000000</v>
  </separator>
  <separator name="response functions" >
   <i type="logical" name="LADDER"> F  </i>
   <i type="logical" name="LFXC"> F  </i>
   <i type="logical" name="LHARTREE"> T  </i>
   <i type="int" name="IBSE">     0</i>
   <i type="logical" name="LTCTE"> F  </i>
   <i type="logical" name="LTETE"> F  </i>
   <i type="logical" name="LTRIPLET"> F  </i>
   <i type="logical" name="LFXCEPS"> F  </i>
   <i type="logical" name="LFXHEG"> F  </i>
   <i type="logical" name="L2ORDER"> F  </i>
   <i type="logical" name="LUSEW"> F  </i>
   <i name="ENCUTGW">     -2.00000000</i>
   <i name="ENCUTGWSOFT">     -2.00000000</i>
   <i name="ENCUTLF">     -1.00000000</i>
   <i type="int" name="LMAXMP2">    -1</i>
   <i name="SCISSOR">      0.00000000</i>
   <i type="int" name="NOMEGA">     0</i>
   <i type="int" name="NOMEGAR">     0</i>
   <i type="int" name="NBANDSGW">    -1</i>
   <i type="int" name="NBANDSO">    -1</i>
   <i type="int" name="NBANDSV">    -1</i>
   <i type="int" name="NELM">   100</i>
   <i type="int" name="DIM">     3</i>
   <i type="int" name="ANTIRES">     0</i>
   <i name="OMEGAMAX">    -30.00000000</i>
   <i name="OMEGAMIN">    -30.00000000</i>
   <i name="OMEGATL">   -200.00000000</i>
   <i type="int" name="OMEGAGRID">     0</i>
   <i name="CSHIFT">     -0.10000000</i>
   <i type="logical" name="SELFENERGY"> F  </i>
   <i type="logical" name="LSPECTRAL"> F  </i>
   <i type="logical" name="ODDONLYGW"> F  </i>
   <i type="logical" name="EVENONLYGW"> F  </i>
   <i type="int" name="NKREDLFX">     1</i>
   <i type="int" name="NKREDLFY">     1</i>
   <i type="int" name="NKREDLFZ">     1</i>
   <i type="int" name="MAXMEM">  1800</i>
   <i type="int" name="TELESCOPE">     0</i>
   <i type="int" name="TAUPAR">     1</i>
  </separator>
  <separator name="External order field" >
   <i name="OFIELD_KAPPA">      0.00000000</i>
   <v name="OFIELD_K">      0.00000000      0.00000000      0.00000000</v>
   <i name="OFIELD_Q6_NEAR">      0.00000000</i>
   <i name="OFIELD_Q6_FAR">      0.00000000</i>
   <i name="OFIELD_A">      0.00000000</i>
  </separator>
 </parameters>
 <atominfo>
  <atoms>       4 </atoms>
  <types>       1 </types>
  <array name="atoms" >
   <dimension dim="1">ion</dimension>
   <field type="string">element</field>
   <field type="int">atomtype</field>
   <set>
    <rc><c>C </c><c>   1</c></rc>
    <rc><c>C </c><c>   1</c></rc>
    <rc><c>C </c><c>   1</c></rc>
    <rc><c>C </c><c>   1</c></rc>
   </set>
  </array>
  <array name="atomtypes" >
   <dimension dim="1">type</dimension>
   <field type="int">atomspertype</field>
   <field type="string">element</field>
   <field>mass</field>
   <field>valence</field>
   <field type="string">pseudopotential</field>
   <set>
    <rc><c>   4</c><c>C </c><c>     12.01100000</c><c>      4.00000000</c><c> PAW_PBE C 08Apr2002                    </c></rc>
   </set>
  </array>
 </atominfo>
 <structure name="initialpos" >
  <crystal>
   <varray name="basis" >
    <v>       4.29611911       0.00000000       0.00000000 </v>
    <v>       0.00000000       2.46479026       0.00000000 </v>
    <v>       0.00000000       0.00000000      19.91096928 </v>
   </varray>
   <i name="volume">    210.83790140 </i>
   <varray name="rec_basis" >
    <v>       0.23276822       0.00000000       0.00000000 </v>
    <v>       0.00000000       0.40571403       0.00000000 </v>
    <v>       0.00000000       0.00000000       0.05022357 </v>
   </varray>
  </crystal>
  <varray name="positions" >
   <v>       0.99987391       0.00000000       0.00000000 </v>
   <v>       0.16679275       0.50000000       0.00000000 </v>
   <v>       0.49987391       0.50000000       0.00000000 </v>
   <v>       0.66679275       0.00000000       0.00000000 </v>
  </varray>
 </structure>
 <calculation>
  <scstep>
   <time name="dav">  293.34  295.59</time>
   <time name="total">  295.76  298.14</time>
   <energy>
    <i name="alphaZ">      6.18334092 </i>
    <i name="ewald">   2556.73084197 </i>
    <i name="hartreedc">  -2983.01197617 </i>
    <i name="XCdc">     55.03688758 </i>
    <i name="pawpsdc">    151.32577238 </i>
    <i name="pawaedc">   -155.92769107 </i>
    <i name="eentropy">     -0.00180330 </i>
    <i name="bandstr">    -29.96260955 </i>
    <i name="atom">    588.62352690 </i>
    <i name="e_fr_energy">    188.99628967 </i>
    <i name="e_wo_entrp">    188.99809297 </i>
    <i name="e_0_energy">    188.99719132 </i>
   </energy>
  </scstep>
  <scstep>
   <time name="dav">  443.08  445.51</time>
   <time name="total">  443.09  445.53</time>
   <energy>
    <i name="e_fr_energy">     -8.97408872 </i>
    <i name="e_wo_entrp">     -8.97381052 </i>
    <i name="e_0_energy">     -8.97394962 </i>
   </energy>
  </scstep>
  <scstep>
   <time name="dav">  342.14  343.83</time>
   <time name="total">  371.22  373.12</time>
   <energy>
    <i name="e_fr_energy">    -38.32745183 </i>
    <i name="e_wo_entrp">    -38.32742313 </i>
    <i name="e_0_energy">    -38.32743748 </i>
   </energy>
  </scstep>
  <scstep>
   <time name="diag">   79.37   79.81</time>
   <time name="diis">  328.46  329.91</time>
   <time name="orth">    3.08    3.10</time>
   <time name="total">  442.24  444.40</time>
   <energy>
    <i name="e_fr_energy">    -37.69139080 </i>
    <i name="e_wo_entrp">    -37.69129441 </i>
    <i name="e_0_energy">    -37.69134260 </i>
   </energy>
  </scstep>
  <scstep>
   <time name="diag">   79.11   79.74</time>
   <time name="diis">  324.72  327.79</time>
   <time name="orth">    3.07    3.08</time>
   <time name="total">  438.20  442.24</time>
   <energy>
    <i name="e_fr_energy">    -36.93274404 </i>
    <i name="e_wo_entrp">    -36.93265664 </i>
    <i name="e_0_energy">    -36.93270034 </i>
   </energy>
  </scstep>
  <scstep>
   <time name="diag">   79.47   79.72</time>
   <time name="diis">  350.33  353.17</time>
   <time name="orth">    3.07    3.10</time>
   <time name="total">  464.03  467.50</time>
   <energy>
    <i name="e_fr_energy">    -36.93457949 </i>
    <i name="e_wo_entrp">    -36.93449428 </i>
    <i name="e_0_energy">    -36.93453688 </i>
   </energy>
  </scstep>
  <scstep>
   <time name="diag">   78.98   79.73</time>
   <time name="diis">  324.38  326.95</time>
   <time name="orth">    3.09    3.09</time>
   <time name="total">  437.97  441.52</time>
   <energy>
    <i name="e_fr_energy">    -36.92507089 </i>
    <i name="e_wo_entrp">    -36.92498783 </i>
    <i name="e_0_energy">    -36.92502936 </i>
   </energy>
  </scstep>
  <scstep>
   <time name="diag">   79.63   79.77</time>
   <time name="diis">  325.48  326.05</time>
   <time name="orth">    3.07    3.10</time>
   <time name="total">  439.37  440.28</time>
   <energy>
    <i name="e_fr_energy">    -36.91946912 </i>
    <i name="e_wo_entrp">    -36.91938559 </i>
    <i name="e_0_energy">    -36.91942735 </i>
   </energy>
  </scstep>
  <scstep>
   <time name="diag">   78.88   79.66</time>
   <time name="diis">  318.98  322.22</time>
   <time name="orth">    3.08    3.08</time>
   <time name="total">  432.35  436.84</time>
   <energy>
    <i name="e_fr_energy">    -36.91911940 </i>
    <i name="e_wo_entrp">    -36.91903515 </i>
    <i name="e_0_energy">    -36.91907728 </i>
   </energy>
  </scstep>
  <scstep>
   <time name="diag">   79.47   79.68</time>
   <time name="diis">  321.21  323.06</time>
   <time name="orth">    3.08    3.11</time>
   <time name="total">  435.00  437.28</time>
   <energy>
    <i name="e_fr_energy">    -36.91901294 </i>
    <i name="e_wo_entrp">    -36.91892915 </i>
    <i name="e_0_energy">    -36.91897105 </i>
   </energy>
  </scstep>
  <scstep>
   <time name="diag">   79.19   79.66</time>
   <time name="diis">  322.82  324.84</time>
   <time name="orth">    3.08    3.10</time>
   <time name="total">  436.51  439.15</time>
   <energy>
    <i name="e_fr_energy">    -36.92155138 </i>
    <i name="e_wo_entrp">    -36.92146776 </i>
    <i name="e_0_energy">    -36.92150957 </i>
   </energy>
  </scstep>
  <scstep>
   <time name="diag">   78.86   79.73</time>
   <time name="diis">  319.69  323.29</time>
   <time name="orth">    3.08    3.08</time>
   <time name="total">  432.77  437.56</time>
   <energy>
    <i name="e_fr_energy">    -36.92200238 </i>
    <i name="e_wo_entrp">    -36.92191859 </i>
    <i name="e_0_energy">    -36.92196049 </i>
   </energy>
  </scstep>
  <scstep>
   <time name="diag">   78.95   79.67</time>
   <time name="diis">  327.27  328.48</time>
   <time name="orth">    3.11    3.11</time>
   <time name="total">  440.66  442.68</time>
   <energy>
    <i name="e_fr_energy">    -36.92225863 </i>
    <i name="e_wo_entrp">    -36.92217482 </i>
    <i name="e_0_energy">    -36.92221673 </i>
   </energy>
  </scstep>
  <scstep>
   <time name="diag">   78.77   79.56</time>
   <time name="diis">  322.65  326.52</time>
   <time name="orth">    3.07    3.09</time>
   <time name="total">  435.68  440.68</time>
   <energy>
    <i name="e_fr_energy">    -36.92234379 </i>
    <i name="e_wo_entrp">    -36.92226002 </i>
    <i name="e_0_energy">    -36.92230190 </i>
   </energy>
  </scstep>
  <scstep>
   <time name="diag">   78.83   79.53</time>
   <time name="diis">  326.35  329.92</time>
   <time name="orth">    3.08    3.10</time>
   <time name="total">  439.40  443.96</time>
   <energy>
    <i name="e_fr_energy">    -36.92235175 </i>
    <i name="e_wo_entrp">    -36.92226796 </i>
    <i name="e_0_energy">    -36.92230986 </i>
   </energy>
  </scstep>
  <scstep>
   <time name="diag">   79.17   79.58</time>
   <time name="diis">  329.97  330.28</time>
   <time name="orth">    3.09    3.10</time>
   <time name="total">  444.35  445.08</time>
   <energy>
    <i name="e_fr_energy">    -36.92236355 </i>
    <i name="e_wo_entrp">    -36.92227975 </i>
    <i name="e_0_energy">    -36.92232165 </i>
   </energy>
  </scstep>
  <scstep>
   <time name="diag">   79.28   79.60</time>
   <time name="diis">  339.11  340.02</time>
   <time name="orth">    3.10    3.10</time>
   <time name="total">  453.06  454.30</time>
   <energy>
    <i name="e_fr_energy">    -36.92236711 </i>
    <i name="e_wo_entrp">    -36.92228333 </i>
    <i name="e_0_energy">    -36.92232522 </i>
   </energy>
  </scstep>
  <scstep>
   <time name="diag">   79.57   79.58</time>
   <time name="diis">  324.52  324.60</time>
   <time name="orth">    3.07    3.07</time>
   <time name="total">  438.86  438.99</time>
   <energy>
    <i name="e_fr_energy">    -36.92236900 </i>
    <i name="e_wo_entrp">    -36.92228521 </i>
    <i name="e_0_energy">    -36.92232711 </i>
   </energy>
  </scstep>
  <scstep>
   <time name="diag">   79.69   79.71</time>
   <time name="diis">  325.69  325.77</time>
   <time name="orth">    3.07    3.07</time>
   <time name="total">  440.04  440.31</time>
   <energy>
    <i name="e_fr_energy">    -36.92236938 </i>
    <i name="e_wo_entrp">    -36.92228559 </i>
    <i name="e_0_energy">    -36.92232748 </i>
   </energy>
  </scstep>
  <scstep>
   <time name="diag">   79.64   79.80</time>
   <time name="diis">  252.73  253.97</time>
   <time name="orth">    3.07    3.07</time>
   <time name="total">  366.93  368.57</time>
   <energy>
    <i name="e_fr_energy">    -36.92236942 </i>
    <i name="e_wo_entrp">    -36.92228564 </i>
    <i name="e_0_energy">    -36.92232753 </i>
   </energy>
  </scstep>
  <scstep>
   <time name="diag">   79.30   79.72</time>
   <time name="diis">  245.91  246.87</time>
   <time name="orth">    3.07    3.07</time>
   <time name="total">  359.48  360.98</time>
   <energy>
    <i name="e_fr_energy">    -36.92236944 </i>
    <i name="e_wo_entrp">    -36.92228566 </i>
    <i name="e_0_energy">    -36.92232755 </i>
   </energy>
  </scstep>
  <scstep>
   <time name="diag">   79.72   79.74</time>
   <time name="diis">  221.89  221.94</time>
   <time name="orth">    3.10    3.10</time>
   <time name="total">  336.43  336.51</time>
   <energy>
    <i name="e_fr_energy">    -36.92236944 </i>
    <i name="e_wo_entrp">    -36.92228566 </i>
    <i name="e_0_energy">    -36.92232755 </i>
   </energy>
  </scstep>
  <scstep>
   <time name="diag">   79.71   79.73</time>
   <time name="diis">  211.33  211.51</time>
   <time name="orth">    3.10    3.10</time>
   <time name="total">  326.09  326.32</time>
   <energy>
    <i name="e_fr_energy">    -36.92236944 </i>
    <i name="e_wo_entrp">    -36.92228566 </i>
    <i name="e_0_energy">    -36.92232755 </i>
   </energy>
  </scstep>
  <scstep>
   <time name="diag">   79.66   79.68</time>
   <time name="diis">  197.60  197.66</time>
   <time name="orth">    3.07    3.07</time>
   <time name="total">  312.24  312.33</time>
   <energy>
    <i name="e_fr_energy">    -36.92236944 </i>
    <i name="e_wo_entrp">    -36.92228566 </i>
    <i name="e_0_energy">    -36.92232755 </i>
   </energy>
  </scstep>
  <scstep>
   <time name="diag">   79.73   79.75</time>
   <time name="diis">  187.65  187.74</time>
   <time name="orth">    3.09    3.09</time>
   <time name="total">  272.84  272.98</time>
   <energy>
    <i name="alphaZ">      6.18334092 </i>
    <i name="ewald">   2556.73084197 </i>
    <i name="hartreedc">  -3050.75096629 </i>
    <i name="XCdc">     57.44015611 </i>
    <i name="pawpsdc">    275.26859152 </i>
    <i name="pawaedc">   -280.40921036 </i>
    <i name="eentropy">     -0.00008379 </i>
    <i name="bandstr">   -190.00856643 </i>
    <i name="atom">    588.62352690 </i>
    <i name="e_fr_energy">    -36.92236944 </i>
    <i name="e_wo_entrp">    -36.92228566 </i>
    <i name="e_0_energy">    -36.92232755 </i>
   </energy>
  </scstep>
  <structure>
   <crystal>
    <varray name="basis" >
     <v>       4.29611911       0.00000000       0.00000000 </v>
     <v>       0.00000000       2.46479026       0.00000000 </v>
     <v>       0.00000000       0.00000000      19.91096928 </v>
    </varray>
    <i name="volume">    210.83790140 </i>
    <varray name="rec_basis" >
     <v>       0.23276822       0.00000000       0.00000000 </v>
     <v>       0.00000000       0.40571403       0.00000000 </v>
     <v>       0.00000000       0.00000000       0.05022357 </v>
    </varray>
   </crystal>
   <varray name="positions" >
    <v>       0.99987391       0.00000000       0.00000000 </v>
    <v>       0.16679275       0.50000000       0.00000000 </v>
    <v>       0.49987391       0.50000000       0.00000000 </v>
    <v>       0.66679275       0.00000000       0.00000000 </v>
   </varray>
  </structure>
  <varray name="forces" >
   <v>      -0.00277211       0.00000000      -0.00000000 </v>
   <v>       0.00277211       0.00000000       0.00000000 </v>
   <v>      -0.00277211       0.00000000      -0.00000000 </v>
   <v>       0.00277211      -0.00000000       0.00000000 </v>
  </varray>
  <varray name="stress" >
   <v>      -8.92823214       0.00000000       0.00000000 </v>
   <v>       0.00000000       0.01876654       0.00000000 </v>
   <v>       0.00000000       0.00000000      -0.01001592 </v>
  </varray>
  <energy>
   <i name="e_fr_energy">    -36.92236944 </i>
   <i name="e_wo_entrp">    -36.92232755 </i>
   <i name="e_0_energy">     -0.00008379 </i>
  </energy>
  <time name="totalsc">10234.3110287.97</time>
 </calculation>
 <calculation>
  <scstep>
   <time name="dav">  311.13  311.62</time>
   <time name="total">  342.92  343.56</time>
   <energy>
    <i name="alphaZ">      6.18334092 </i>
    <i name="ewald">   2556.73022182 </i>
    <i name="hartreedc">  -3050.75069922 </i>
    <i name="XCdc">     57.44013848 </i>
    <i name="pawpsdc">    275.26859434 </i>
    <i name="pawaedc">   -280.40921320 </i>
    <i name="eentropy">     -0.00008809 </i>
    <i name="bandstr">   -190.00818920 </i>
    <i name="atom">    588.62352690 </i>
    <i name="e_fr_energy">    -36.92236725 </i>
    <i name="e_wo_entrp">    -36.92227916 </i>
    <i name="e_0_energy">    -36.92232321 </i>
   </energy>
  </scstep>
  <scstep>
   <time name="diag">   79.30   79.70</time>
   <time name="diis">  320.01  321.83</time>
   <time name="orth">    3.08    3.11</time>
   <time name="total">  433.84  436.25</time>
   <energy>
    <i name="e_fr_energy">    -36.92236735 </i>
    <i name="e_wo_entrp">    -36.92227941 </i>
    <i name="e_0_energy">    -36.92232338 </i>
   </energy>
  </scstep>
  <scstep>
   <time name="diag">   79.23   79.60</time>
   <time name="diis">  323.08  323.83</time>
   <time name="orth">    3.10    3.10</time>
   <time name="total">  436.78  439.54</time>
   <energy>
    <i name="e_fr_energy">    -36.92236725 </i>
    <i name="e_wo_entrp">    -36.92227956 </i>
    <i name="e_0_energy">    -36.92232341 </i>
   </energy>
  </scstep>
  <scstep>
   <time name="diag">   79.64   79.66</time>
   <time name="diis">  333.56  333.62</time>
   <time name="orth">    3.10    3.10</time>
   <time name="total">  447.88  448.06</time>
   <energy>
    <i name="e_fr_energy">    -36.92236724 </i>
    <i name="e_wo_entrp">    -36.92227949 </i>
    <i name="e_0_energy">    -36.92232336 </i>
   </energy>
  </scstep>
  <scstep>
   <time name="diag">   79.61   79.64</time>
   <time name="diis">  330.88  331.82</time>
   <time name="orth">    3.08    3.10</time>
   <time name="total">  444.98  446.14</time>
   <energy>
    <i name="e_fr_energy">    -36.92236724 </i>
    <i name="e_wo_entrp">    -36.92227948 </i>
    <i name="e_0_energy">    -36.92232336 </i>
   </energy>
  </scstep>
  <scstep>
   <time name="diag">   79.32   79.69</time>
   <time name="diis">  278.32  279.87</time>
   <time name="orth">    3.08    3.10</time>
   <time name="total">  363.11  365.07</time>
   <energy>
    <i name="alphaZ">      6.18334092 </i>
    <i name="ewald">   2556.73022182 </i>
    <i name="hartreedc">  -3050.75047569 </i>
    <i name="XCdc">     57.44012834 </i>
    <i name="pawpsdc">    275.26752584 </i>
    <i name="pawaedc">   -280.40814007 </i>
    <i name="eentropy">     -0.00008775 </i>
    <i name="bandstr">   -190.00840755 </i>
    <i name="atom">    588.62352690 </i>
    <i name="e_fr_energy">    -36.92236724 </i>
    <i name="e_wo_entrp">    -36.92227949 </i>
    <i name="e_0_energy">    -36.92232336 </i>
   </energy>
  </scstep>
  <structure>
   <crystal>
    <varray name="basis" >
     <v>       4.29611911       0.00000000       0.00000000 </v>
     <v>       0.00000000       2.46479026       0.00000000 </v>
     <v>       0.00000000       0.00000000      19.91096928 </v>
    </varray>
    <i name="volume">    210.83790140 </i>
    <varray name="rec_basis" >
     <v>       0.23276822       0.00000000       0.00000000 </v>
     <v>       0.00000000       0.40571403       0.00000000 </v>
     <v>       0.00000000       0.00000000       0.05022357 </v>
    </varray>
   </crystal>
   <varray name="positions" >
    <v>       0.99984278       0.00000000      -0.00000000 </v>
    <v>       0.16682388       0.50000000       0.00000000 </v>
    <v>       0.49984278       0.50000000      -0.00000000 </v>
    <v>       0.66682388      -0.00000000       0.00000000 </v>
   </varray>
  </structure>
  <varray name="forces" >
   <v>       0.01098045      -0.00000000       0.00000000 </v>
   <v>      -0.01098045       0.00000000       0.00000000 </v>
   <v>       0.01098045       0.00000000       0.00000000 </v>
   <v>      -0.01098045      -0.00000000       0.00000000 </v>
  </varray>
  <varray name="stress" >
   <v>      -8.89172420       0.00000000       0.00000000 </v>
   <v>       0.00000000      -0.02243530       0.00000000 </v>
   <v>       0.00000000       0.00000000      -0.01005718 </v>
  </varray>
  <energy>
   <i name="e_fr_energy">    -36.92236724 </i>
   <i name="e_wo_entrp">    -36.92232336 </i>
   <i name="e_0_energy">     -0.00008775 </i>
  </energy>
  <time name="totalsc"> 2569.97 2579.77</time>
 </calculation>
 <calculation>
  <scstep>
   <time name="dav">  313.94  314.03</time>
   <time name="total">  345.42  345.52</time>
   <energy>
    <i name="alphaZ">      6.18334092 </i>
    <i name="ewald">   2556.73071493 </i>
    <i name="hartreedc">  -3050.75067796 </i>
    <i name="XCdc">     57.44014218 </i>
    <i name="pawpsdc">    275.26751714 </i>
    <i name="pawaedc">   -280.40813141 </i>
    <i name="eentropy">     -0.00008431 </i>
    <i name="bandstr">   -190.00871799 </i>
    <i name="atom">    588.62352690 </i>
    <i name="e_fr_energy">    -36.92236959 </i>
    <i name="e_wo_entrp">    -36.92228528 </i>
    <i name="e_0_energy">    -36.92232744 </i>
   </energy>
  </scstep>
  <scstep>
   <time name="diag">   79.60   79.61</time>
   <time name="diis">  322.42  322.49</time>
   <time name="orth">    3.09    3.09</time>
   <time name="total">  436.89  436.98</time>
   <energy>
    <i name="e_fr_energy">    -36.92236966 </i>
    <i name="e_wo_entrp">    -36.92228523 </i>
    <i name="e_0_energy">    -36.92232744 </i>
   </energy>
  </scstep>
  <scstep>
   <time name="diag">   79.62   79.68</time>
   <time name="diis">  325.04  325.10</time>
   <time name="orth">    3.08    3.08</time>
   <time name="total">  439.50  439.66</time>
   <energy>
    <i name="e_fr_energy">    -36.92236960 </i>
    <i name="e_wo_entrp">    -36.92228496 </i>
    <i name="e_0_energy">    -36.92232728 </i>
   </energy>
  </scstep>
  <scstep>
   <time name="diag">   79.60   79.62</time>
   <time name="diis">  330.71  330.87</time>
   <time name="orth">    3.10    3.10</time>
   <time name="total">  445.02  445.21</time>
   <energy>
    <i name="e_fr_energy">    -36.92236959 </i>
    <i name="e_wo_entrp">    -36.92228500 </i>
    <i name="e_0_energy">    -36.92232730 </i>
   </energy>
  </scstep>
  <scstep>
   <time name="diag">   79.58   79.60</time>
   <time name="diis">  320.15  320.26</time>
   <time name="orth">    3.07    3.07</time>
   <time name="total">  434.44  434.58</time>
   <energy>
    <i name="e_fr_energy">    -36.92236959 </i>
    <i name="e_wo_entrp">    -36.92228501 </i>
    <i name="e_0_energy">    -36.92232730 </i>
   </energy>
  </scstep>
  <scstep>
   <time name="diag">   79.58   79.60</time>
   <time name="diis">  242.20  242.25</time>
   <time name="orth">    3.10    3.10</time>
   <time name="total">  356.51  356.64</time>
   <energy>
    <i name="e_fr_energy">    -36.92236959 </i>
    <i name="e_wo_entrp">    -36.92228500 </i>
    <i name="e_0_energy">    -36.92232730 </i>
   </energy>
  </scstep>
  <scstep>
   <time name="diag">   79.58   79.59</time>
   <time name="diis">  213.66  213.74</time>
   <time name="orth">    3.08    3.08</time>
   <time name="total">  327.87  327.97</time>
   <energy>
    <i name="e_fr_energy">    -36.92236959 </i>
    <i name="e_wo_entrp">    -36.92228500 </i>
    <i name="e_0_energy">    -36.92232730 </i>
   </energy>
  </scstep>
  <scstep>
   <time name="diag">   79.57   79.59</time>
   <time name="diis">  202.29  202.33</time>
   <time name="orth">    3.10    3.10</time>
   <time name="total">  316.88  317.14</time>
   <energy>
    <i name="e_fr_energy">    -36.92236959 </i>
    <i name="e_wo_entrp">    -36.92228500 </i>
    <i name="e_0_energy">    -36.92232730 </i>
   </energy>
  </scstep>
  <scstep>
   <time name="diag">   79.59   79.60</time>
   <time name="diis">  193.43  193.53</time>
   <time name="orth">    3.08    3.08</time>
   <time name="total">  308.00  308.12</time>
   <energy>
    <i name="e_fr_energy">    -36.92236959 </i>
    <i name="e_wo_entrp">    -36.92228500 </i>
    <i name="e_0_energy">    -36.92232730 </i>
   </energy>
  </scstep>
  <scstep>
   <time name="diag">   79.55   79.56</time>
   <time name="diis">  184.94  184.98</time>
   <time name="orth">    3.08    3.08</time>
   <time name="total">  269.91  270.00</time>
   <energy>
    <i name="alphaZ">      6.18334092 </i>
    <i name="ewald">   2556.73071493 </i>
    <i name="hartreedc">  -3050.75085722 </i>
    <i name="XCdc">     57.44015048 </i>
    <i name="pawpsdc">    275.26837416 </i>
    <i name="pawaedc">   -280.40899218 </i>
    <i name="eentropy">     -0.00008459 </i>
    <i name="bandstr">   -190.00854301 </i>
    <i name="atom">    588.62352690 </i>
    <i name="e_fr_energy">    -36.92236959 </i>
    <i name="e_wo_entrp">    -36.92228500 </i>
    <i name="e_0_energy">    -36.92232730 </i>
   </energy>
  </scstep>
  <structure>
   <crystal>
    <varray name="basis" >
     <v>       4.29611911       0.00000000       0.00000000 </v>
     <v>       0.00000000       2.46479026       0.00000000 </v>
     <v>       0.00000000       0.00000000      19.91096928 </v>
    </varray>
    <i name="volume">    210.83790140 </i>
    <varray name="rec_basis" >
     <v>       0.23276822       0.00000000       0.00000000 </v>
     <v>       0.00000000       0.40571403       0.00000000 </v>
     <v>       0.00000000       0.00000000       0.05022357 </v>
    </varray>
   </crystal>
   <varray name="positions" >
    <v>       0.99986764      -0.00000000      -0.00000000 </v>
    <v>       0.16679903       0.50000000       0.00000000 </v>
    <v>       0.49986764       0.50000000      -0.00000000 </v>
    <v>       0.66679903      -0.00000000       0.00000000 </v>
   </varray>
  </structure>
  <varray name="forces" >
   <v>       0.00000370       0.00000000       0.00000000 </v>
   <v>      -0.00000370       0.00000000       0.00000000 </v>
   <v>       0.00000370       0.00000000       0.00000000 </v>
   <v>      -0.00000370      -0.00000000       0.00000000 </v>
  </varray>
  <varray name="stress" >
   <v>      -8.92080893       0.00000000       0.00000000 </v>
   <v>       0.00000000       0.01038833       0.00000000 </v>
   <v>       0.00000000       0.00000000      -0.01000239 </v>
  </varray>
  <energy>
   <i name="e_fr_energy">    -36.92236959 </i>
   <i name="e_wo_entrp">    -36.92232730 </i>
   <i name="e_0_energy">     -0.00008459 </i>
  </energy>
  <time name="totalsc"> 3780.84 3783.70</time>
 </calculation>
 <calculation>
  <scstep>
   <time name="dav">  259.98  260.09</time>
   <time name="total">  291.34  291.46</time>
   <energy>
    <i name="alphaZ">      6.18334092 </i>
    <i name="ewald">   2556.73071510 </i>
    <i name="hartreedc">  -3050.75085917 </i>
    <i name="XCdc">     57.44015051 </i>
    <i name="pawpsdc">    275.26837363 </i>
    <i name="pawaedc">   -280.40899165 </i>
    <i name="eentropy">     -0.00008459 </i>
    <i name="bandstr">   -190.00854125 </i>
    <i name="atom">    588.62352690 </i>
    <i name="e_fr_energy">    -36.92236959 </i>
    <i name="e_wo_entrp">    -36.92228500 </i>
    <i name="e_0_energy">    -36.92232730 </i>
   </energy>
  </scstep>
  <scstep>
   <time name="diag">   79.42   79.63</time>
   <time name="diis">  155.76  156.51</time>
   <time name="orth">    3.08    3.08</time>
   <time name="total">  269.73  270.83</time>
   <energy>
    <i name="e_fr_energy">    -36.92236959 </i>
    <i name="e_wo_entrp">    -36.92228500 </i>
    <i name="e_0_energy">    -36.92232730 </i>
   </energy>
  </scstep>
  <scstep>
   <time name="diag">   79.25   79.65</time>
   <time name="diis">  153.39  153.65</time>
   <time name="orth">    3.09    3.10</time>
   <time name="total">  267.41  268.12</time>
   <energy>
    <i name="e_fr_energy">    -36.92236959 </i>
    <i name="e_wo_entrp">    -36.92228500 </i>
    <i name="e_0_energy">    -36.92232730 </i>
   </energy>
  </scstep>
  <scstep>
   <time name="diag">   79.58   79.60</time>
   <time name="diis">  151.54  151.57</time>
   <time name="orth">    3.10    3.10</time>
   <time name="total">  265.73  265.80</time>
   <energy>
    <i name="e_fr_energy">    -36.92236959 </i>
    <i name="e_wo_entrp">    -36.92228500 </i>
    <i name="e_0_energy">    -36.92232730 </i>
   </energy>
  </scstep>
  <scstep>
   <time name="diag">   79.58   79.60</time>
   <time name="diis">  150.71  150.79</time>
   <time name="orth">    3.10    3.10</time>
   <time name="total">  235.80  235.90</time>
   <energy>
    <i name="alphaZ">      6.18334092 </i>
    <i name="ewald">   2556.73071510 </i>
    <i name="hartreedc">  -3050.75085945 </i>
    <i name="XCdc">     57.44015046 </i>
    <i name="pawpsdc">    275.26837382 </i>
    <i name="pawaedc">   -280.40899183 </i>
    <i name="eentropy">     -0.00008459 </i>
    <i name="bandstr">   -190.00854093 </i>
    <i name="atom">    588.62352690 </i>
    <i name="e_fr_energy">    -36.92236959 </i>
    <i name="e_wo_entrp">    -36.92228500 </i>
    <i name="e_0_energy">    -36.92232730 </i>
   </energy>
  </scstep>
  <structure>
   <crystal>
    <varray name="basis" >
     <v>       4.29611911       0.00000000       0.00000000 </v>
     <v>       0.00000000       2.46479026       0.00000000 </v>
     <v>       0.00000000       0.00000000      19.91096928 </v>
    </varray>
    <i name="volume">    210.83790140 </i>
    <varray name="rec_basis" >
     <v>       0.23276822       0.00000000       0.00000000 </v>
     <v>       0.00000000       0.40571403       0.00000000 </v>
     <v>       0.00000000       0.00000000       0.05022357 </v>
    </varray>
   </crystal>
   <varray name="positions" >
    <v>       0.99986765      -0.00000000      -0.00000000 </v>
    <v>       0.16679902       0.50000000       0.00000000 </v>
    <v>       0.49986765       0.50000000      -0.00000000 </v>
    <v>       0.66679902      -0.00000000       0.00000000 </v>
   </varray>
  </structure>
  <varray name="forces" >
   <v>      -0.00000260      -0.00000000      -0.00000000 </v>
   <v>       0.00000260       0.00000000       0.00000000 </v>
   <v>      -0.00000260       0.00000000      -0.00000000 </v>
   <v>       0.00000260      -0.00000000       0.00000000 </v>
  </varray>
  <varray name="stress" >
   <v>      -8.92084168       0.00000000       0.00000000 </v>
   <v>       0.00000000       0.01042630       0.00000000 </v>
   <v>       0.00000000       0.00000000      -0.01001660 </v>
  </varray>
  <energy>
   <i name="e_fr_energy">    -36.92236959 </i>
   <i name="e_wo_entrp">    -36.92232730 </i>
   <i name="e_0_energy">     -0.00008459 </i>
  </energy>
  <time name="totalsc"> 1429.47 1432.09</time>
 </calculation>
 <calculation>
  <scstep>
   <time name="dav">  237.35  237.40</time>
   <time name="total">  268.95  269.01</time>
   <energy>
    <i name="alphaZ">      6.18334092 </i>
    <i name="ewald">   2556.73071503 </i>
    <i name="hartreedc">  -3050.75085955 </i>
    <i name="XCdc">     57.44015046 </i>
    <i name="pawpsdc">    275.26837383 </i>
    <i name="pawaedc">   -280.40899184 </i>
    <i name="eentropy">     -0.00008459 </i>
    <i name="bandstr">   -190.00854076 </i>
    <i name="atom">    588.62352690 </i>
    <i name="e_fr_energy">    -36.92236959 </i>
    <i name="e_wo_entrp">    -36.92228500 </i>
    <i name="e_0_energy">    -36.92232730 </i>
   </energy>
  </scstep>
  <scstep>
   <time name="diag">   79.59   79.61</time>
   <time name="diis">  143.23  143.30</time>
   <time name="orth">    3.10    3.10</time>
   <time name="total">  257.55  257.65</time>
   <energy>
    <i name="e_fr_energy">    -36.92236959 </i>
    <i name="e_wo_entrp">    -36.92228500 </i>
    <i name="e_0_energy">    -36.92232730 </i>
   </energy>
  </scstep>
  <scstep>
   <time name="diag">   79.57   79.58</time>
   <time name="diis">  142.66  142.68</time>
   <time name="orth">    3.11    3.11</time>
   <time name="total">  257.13  257.26</time>
   <energy>
    <i name="e_fr_energy">    -36.92236959 </i>
    <i name="e_wo_entrp">    -36.92228500 </i>
    <i name="e_0_energy">    -36.92232730 </i>
   </energy>
  </scstep>
  <scstep>
   <time name="diag">   79.58   79.59</time>
   <time name="diis">  141.39  141.41</time>
   <time name="orth">    3.10    3.10</time>
   <time name="total">  255.49  263.24</time>
   <energy>
    <i name="e_fr_energy">    -36.92236959 </i>
    <i name="e_wo_entrp">    -36.92228500 </i>
    <i name="e_0_energy">    -36.92232730 </i>
   </energy>
  </scstep>
  <scstep>
   <time name="diag">   79.28   79.69</time>
   <time name="diis">  146.91  147.40</time>
   <time name="orth">    3.09    3.09</time>
   <time name="total">  261.70  262.70</time>
   <energy>
    <i name="e_fr_energy">    -36.92236959 </i>
    <i name="e_wo_entrp">    -36.92228500 </i>
    <i name="e_0_energy">    -36.92232730 </i>
   </energy>
  </scstep>
  <scstep>
   <time name="diag">   79.63   79.66</time>
   <time name="diis">  138.81  138.90</time>
   <time name="orth">    3.10    3.11</time>
   <time name="total">  253.04  253.19</time>
   <energy>
    <i name="e_fr_energy">    -36.92236959 </i>
    <i name="e_wo_entrp">    -36.92228500 </i>
    <i name="e_0_energy">    -36.92232730 </i>
   </energy>
  </scstep>
  <scstep>
   <time name="diag">   79.77   79.79</time>
   <time name="diis">  140.93  140.99</time>
   <time name="orth">    3.10    3.10</time>
   <time name="total">  255.53  256.02</time>
   <energy>
    <i name="e_fr_energy">    -36.92236959 </i>
    <i name="e_wo_entrp">    -36.92228500 </i>
    <i name="e_0_energy">    -36.92232730 </i>
   </energy>
  </scstep>
  <scstep>
   <time name="diag">   79.68   79.70</time>
   <time name="diis">  135.88  135.90</time>
   <time name="orth">    3.10    3.10</time>
   <time name="total">  221.01  221.11</time>
   <energy>
    <i name="alphaZ">      6.18334092 </i>
    <i name="ewald">   2556.73071503 </i>
    <i name="hartreedc">  -3050.75086032 </i>
    <i name="XCdc">     57.44015048 </i>
    <i name="pawpsdc">    275.26837383 </i>
    <i name="pawaedc">   -280.40899184 </i>
    <i name="eentropy">     -0.00008459 </i>
    <i name="bandstr">   -190.00854001 </i>
    <i name="atom">    588.62352690 </i>
    <i name="e_fr_energy">    -36.92236959 </i>
    <i name="e_wo_entrp">    -36.92228500 </i>
    <i name="e_0_energy">    -36.92232730 </i>
   </energy>
  </scstep>
  <structure>
   <crystal>
    <varray name="basis" >
     <v>       4.29611911       0.00000000       0.00000000 </v>
     <v>       0.00000000       2.46479026       0.00000000 </v>
     <v>       0.00000000       0.00000000      19.91096928 </v>
    </varray>
    <i name="volume">    210.83790140 </i>
    <varray name="rec_basis" >
     <v>       0.23276822       0.00000000       0.00000000 </v>
     <v>       0.00000000       0.40571403       0.00000000 </v>
     <v>       0.00000000       0.00000000       0.05022357 </v>
    </varray>
   </crystal>
   <varray name="positions" >
    <v>       0.99986764      -0.00000000      -0.00000000 </v>
    <v>       0.16679902       0.50000000       0.00000000 </v>
    <v>       0.49986764       0.50000000      -0.00000000 </v>
    <v>       0.66679902      -0.00000000       0.00000000 </v>
   </varray>
  </structure>
  <varray name="forces" >
   <v>       0.00000061       0.00000000       0.00000000 </v>
   <v>      -0.00000061       0.00000000      -0.00000000 </v>
   <v>       0.00000061       0.00000000       0.00000000 </v>
   <v>      -0.00000061      -0.00000000      -0.00000000 </v>
  </varray>
  <varray name="stress" >
   <v>      -8.92083481       0.00000000       0.00000000 </v>
   <v>       0.00000000       0.01041770       0.00000000 </v>
   <v>       0.00000000       0.00000000      -0.01001375 </v>
  </varray>
  <energy>
   <i name="e_fr_energy">    -36.92236959 </i>
   <i name="e_wo_entrp">    -36.92232730 </i>
   <i name="e_0_energy">     -0.00008459 </i>
  </energy>
  <time name="totalsc"> 2123.46 2133.52</time>
  <eigenvalues>
   <array>
    <dimension dim="1">band</dimension>
    <dimension dim="2">kpoint</dimension>
    <dimension dim="3">spin</dimension>
    <field>eigene</field>
    <field>occ</field>
    <set>
     <set comment="spin 1">
      <set comment="kpoint 1">
       <r>  -22.2168    1.0000 </r>
       <r>  -17.0741    1.0000 </r>
       <r>  -15.9445    1.0000 </r>
       <r>  -10.3305    1.0000 </r>
       <r>   -9.0803    1.0000 </r>
       <r>   -5.8350    1.0000 </r>
       <r>   -5.7728    1.0000 </r>
       <r>   -5.1606    1.0000 </r>
       <r>   -1.1001    0.0000 </r>
       <r>    0.5282    0.0000 </r>
       <r>    1.3287    0.0000 </r>
       <r>    1.7138    0.0000 </r>
      </set>
      <set comment="kpoint 2">
       <r>  -22.2067    1.0000 </r>
       <r>  -17.2270    1.0000 </r>
       <r>  -15.7764    1.0000 </r>
       <r>  -10.3184    1.0000 </r>
       <r>   -9.0703    1.0000 </r>
       <r>   -5.8781    1.0000 </r>
       <r>   -5.7948    1.0000 </r>
       <r>   -5.2253    1.0000 </r>
       <r>   -1.0194    0.0000 </r>
       <r>    0.5420    0.0000 </r>
       <r>    1.3427    0.0000 </r>
       <r>    1.7279    0.0000 </r>
      </set>
      <set comment="kpoint 3">
       <r>  -22.1762    1.0000 </r>
       <r>  -17.5496    1.0000 </r>
       <r>  -15.4082    1.0000 </r>
       <r>  -10.2821    1.0000 </r>
       <r>   -9.0402    1.0000 </r>
       <r>   -6.0055    1.0000 </r>
       <r>   -5.8596    1.0000 </r>
       <r>   -5.4053    1.0000 </r>
       <r>   -0.7917    0.0000 </r>
       <r>    0.5832    0.0000 </r>
       <r>    1.3844    0.0000 </r>
       <r>    1.7702    0.0000 </r>
      </set>
      <set comment="kpoint 4">
       <r>  -22.1256    1.0000 </r>
       <r>  -17.9162    1.0000 </r>
       <r>  -14.9660    1.0000 </r>
       <r>  -10.2217    1.0000 </r>
       <r>   -8.9904    1.0000 </r>
       <r>   -6.2122    1.0000 </r>
       <r>   -5.9639    1.0000 </r>
       <r>   -5.6687    1.0000 </r>
       <r>   -0.4495    0.0000 </r>
       <r>    0.6520    0.0000 </r>
       <r>    1.4541    0.0000 </r>
       <r>    1.8408    0.0000 </r>
      </set>
      <set comment="kpoint 5">
       <r>  -22.0547    1.0000 </r>
       <r>  -18.2882    1.0000 </r>
       <r>  -14.4888    1.0000 </r>
       <r>  -10.1373    1.0000 </r>
       <r>   -8.9209    1.0000 </r>
       <r>   -6.4903    1.0000 </r>
       <r>   -6.1025    1.0000 </r>
       <r>   -5.9834    1.0000 </r>
       <r>   -0.0256    0.0000 </r>
       <r>    0.7483    0.0000 </r>
       <r>    1.5516    0.0000 </r>
       <r>    1.9395    0.0000 </r>
      </set>
      <set comment="kpoint 6">
       <r>  -21.9636    1.0000 </r>
       <r>  -18.6528    1.0000 </r>
       <r>  -13.9899    1.0000 </r>
       <r>  -10.0290    1.0000 </r>
       <r>   -8.8323    1.0000 </r>
       <r>   -6.8307    1.0000 </r>
       <r>   -6.3254    1.0000 </r>
       <r>   -6.2694    1.0000 </r>
       <r>    0.4548    0.0000 </r>
       <r>    0.8720    0.0000 </r>
       <r>    1.6768    0.0000 </r>
       <r>    2.0664    0.0000 </r>
      </set>
      <set comment="kpoint 7">
       <r>  -21.8524    1.0000 </r>
       <r>  -19.0051    1.0000 </r>
       <r>  -13.4751    1.0000 </r>
       <r>   -9.8970    1.0000 </r>
       <r>   -8.7249    1.0000 </r>
       <r>   -7.2239    1.0000 </r>
       <r>   -6.6785    1.0000 </r>
       <r>   -6.4581    1.0000 </r>
       <r>    0.9737    0.0000 </r>
       <r>    1.0233    0.0000 </r>
       <r>    1.8298    0.0000 </r>
       <r>    2.2216    0.0000 </r>
      </set>
      <set comment="kpoint 8">
       <r>  -21.7212    1.0000 </r>
       <r>  -19.3425    1.0000 </r>
       <r>  -12.9481    1.0000 </r>
       <r>   -9.7415    1.0000 </r>
       <r>   -8.5995    1.0000 </r>
       <r>   -7.6604    1.0000 </r>
       <r>   -7.0320    1.0000 </r>
       <r>   -6.6624    1.0000 </r>
       <r>    1.2021    0.0000 </r>
       <r>    1.5184    0.0000 </r>
       <r>    2.0105    0.0000 </r>
       <r>    2.4049    0.0000 </r>
      </set>
      <set comment="kpoint 9">
       <r>  -21.5700    1.0000 </r>
       <r>  -19.6634    1.0000 </r>
       <r>  -12.4117    1.0000 </r>
       <r>   -9.5629    1.0000 </r>
       <r>   -8.4568    1.0000 </r>
       <r>   -8.1315    1.0000 </r>
       <r>   -7.3791    1.0000 </r>
       <r>   -6.8765    1.0000 </r>
       <r>    1.4084    0.0000 </r>
       <r>    2.0790    0.0000 </r>
       <r>    2.2186    0.0000 </r>
       <r>    2.6165    0.0000 </r>
      </set>
      <set comment="kpoint 10">
       <r>  -21.3990    1.0000 </r>
       <r>  -19.9671    1.0000 </r>
       <r>  -11.8683    1.0000 </r>
       <r>   -9.3616    1.0000 </r>
       <r>   -8.6297    1.0000 </r>
       <r>   -8.2980    1.0000 </r>
       <r>   -7.7149    1.0000 </r>
       <r>   -7.0951    1.0000 </r>
       <r>    1.6420    0.0000 </r>
       <r>    2.4541    0.0000 </r>
       <r>    2.6462    0.0000 </r>
       <r>    2.8562    0.0000 </r>
      </set>
      <set comment="kpoint 11">
       <r>  -21.2084    1.0000 </r>
       <r>  -20.2528    1.0000 </r>
       <r>  -11.3205    1.0000 </r>
       <r>   -9.1481    1.0000 </r>
       <r>   -9.1380    1.0000 </r>
       <r>   -8.1241    1.0000 </r>
       <r>   -8.0363    1.0000 </r>
       <r>   -7.3140    1.0000 </r>
       <r>    1.9030    0.0000 </r>
       <r>    2.7163    0.0000 </r>
       <r>    3.1241    0.0000 </r>
       <r>    3.2171    0.0000 </r>
      </set>
      <set comment="kpoint 12">
       <r>  -20.9982    1.0000 </r>
       <r>  -20.5202    1.0000 </r>
       <r>  -10.7712    1.0000 </r>
       <r>   -9.6810    1.0000 </r>
       <r>   -8.8928    1.0000 </r>
       <r>   -8.3408    1.0000 </r>
       <r>   -7.9368    1.0000 </r>
       <r>   -7.5293    1.0000 </r>
       <r>    2.1912    0.0000 </r>
       <r>    2.8487    0.0000 </r>
       <r>    3.0040    0.0000 </r>
       <r>    3.4202    0.0000 </r>
      </set>
      <set comment="kpoint 13">
       <r>  -20.7687    1.0000 </r>
       <r>  -20.7687    1.0000 </r>
       <r>  -10.2235    1.0000 </r>
       <r>  -10.2235    1.0000 </r>
       <r>   -8.6267    1.0000 </r>
       <r>   -8.6267    1.0000 </r>
       <r>   -7.7377    1.0000 </r>
       <r>   -7.7377    1.0000 </r>
       <r>    2.5065    0.0000 </r>
       <r>    2.5065    0.0000 </r>
       <r>    3.3115    0.0000 </r>
       <r>    3.3115    0.0000 </r>
      </set>
      <set comment="kpoint 14">
       <r>  -22.2031    1.0000 </r>
       <r>  -17.0623    1.0000 </r>
       <r>  -15.9329    1.0000 </r>
       <r>  -10.3141    1.0000 </r>
       <r>   -9.1423    1.0000 </r>
       <r>   -5.8642    1.0000 </r>
       <r>   -5.8301    1.0000 </r>
       <r>   -5.1439    1.0000 </r>
       <r>   -1.1037    0.0000 </r>
       <r>    0.5468    0.0000 </r>
       <r>    1.3475    0.0000 </r>
       <r>    1.7329    0.0000 </r>
      </set>
      <set comment="kpoint 15">
       <r>  -22.1930    1.0000 </r>
       <r>  -17.2151    1.0000 </r>
       <r>  -15.7649    1.0000 </r>
       <r>  -10.3020    1.0000 </r>
       <r>   -9.1322    1.0000 </r>
       <r>   -5.9145    1.0000 </r>
       <r>   -5.8442    1.0000 </r>
       <r>   -5.2088    1.0000 </r>
       <r>   -1.0230    0.0000 </r>
       <r>    0.5606    0.0000 </r>
       <r>    1.3615    0.0000 </r>
       <r>    1.7470    0.0000 </r>
      </set>
      <set comment="kpoint 16">
       <r>  -22.1625    1.0000 </r>
       <r>  -17.5374    1.0000 </r>
       <r>  -15.3972    1.0000 </r>
       <r>  -10.2658    1.0000 </r>
       <r>   -9.1021    1.0000 </r>
       <r>   -6.0464    1.0000 </r>
       <r>   -5.9028    1.0000 </r>
       <r>   -5.3891    1.0000 </r>
       <r>   -0.7953    0.0000 </r>
       <r>    0.6018    0.0000 </r>
       <r>    1.4033    0.0000 </r>
       <r>    1.7893    0.0000 </r>
      </set>
      <set comment="kpoint 17">
       <r>  -22.1119    1.0000 </r>
       <r>  -17.9038    1.0000 </r>
       <r>  -14.9554    1.0000 </r>
       <r>  -10.2054    1.0000 </r>
       <r>   -9.0522    1.0000 </r>
       <r>   -6.2521    1.0000 </r>
       <r>   -6.0053    1.0000 </r>
       <r>   -5.6529    1.0000 </r>
       <r>   -0.4534    0.0000 </r>
       <r>    0.6706    0.0000 </r>
       <r>    1.4729    0.0000 </r>
       <r>    1.8598    0.0000 </r>
      </set>
      <set comment="kpoint 18">
       <r>  -22.0410    1.0000 </r>
       <r>  -18.2756    1.0000 </r>
       <r>  -14.4788    1.0000 </r>
       <r>  -10.1210    1.0000 </r>
       <r>   -8.9826    1.0000 </r>
       <r>   -6.5262    1.0000 </r>
       <r>   -6.1447    1.0000 </r>
       <r>   -5.9678    1.0000 </r>
       <r>   -0.0300    0.0000 </r>
       <r>    0.7669    0.0000 </r>
       <r>    1.5704    0.0000 </r>
       <r>    1.9585    0.0000 </r>
      </set>
      <set comment="kpoint 19">
       <r>  -21.9499    1.0000 </r>
       <r>  -18.6401    1.0000 </r>
       <r>  -13.9805    1.0000 </r>
       <r>  -10.0127    1.0000 </r>
       <r>   -8.8938    1.0000 </r>
       <r>   -6.8614    1.0000 </r>
       <r>   -6.3134    1.0000 </r>
       <r>   -6.3100    1.0000 </r>
       <r>    0.4495    0.0000 </r>
       <r>    0.8906    0.0000 </r>
       <r>    1.6956    0.0000 </r>
       <r>    2.0855    0.0000 </r>
      </set>
      <set comment="kpoint 20">
       <r>  -21.8387    1.0000 </r>
       <r>  -18.9922    1.0000 </r>
       <r>  -13.4666    1.0000 </r>
       <r>   -9.8808    1.0000 </r>
       <r>   -8.7862    1.0000 </r>
       <r>   -7.2489    1.0000 </r>
       <r>   -6.6631    1.0000 </r>
       <r>   -6.5045    1.0000 </r>
       <r>    0.9672    0.0000 </r>
       <r>    1.0420    0.0000 </r>
       <r>    1.8486    0.0000 </r>
       <r>    2.2406    0.0000 </r>
      </set>
      <set comment="kpoint 21">
       <r>  -21.7075    1.0000 </r>
       <r>  -19.3294    1.0000 </r>
       <r>  -12.9405    1.0000 </r>
       <r>   -9.7254    1.0000 </r>
       <r>   -8.6605    1.0000 </r>
       <r>   -7.6799    1.0000 </r>
       <r>   -7.0166    1.0000 </r>
       <r>   -6.7112    1.0000 </r>
       <r>    1.2207    0.0000 </r>
       <r>    1.5104    0.0000 </r>
       <r>    2.0292    0.0000 </r>
       <r>    2.4240    0.0000 </r>
      </set>
      <set comment="kpoint 22">
       <r>  -21.5564    1.0000 </r>
       <r>  -19.6503    1.0000 </r>
       <r>  -12.4052    1.0000 </r>
       <r>   -9.5469    1.0000 </r>
       <r>   -8.5174    1.0000 </r>
       <r>   -8.1461    1.0000 </r>
       <r>   -7.3636    1.0000 </r>
       <r>   -6.9275    1.0000 </r>
       <r>    1.4270    0.0000 </r>
       <r>    2.0693    0.0000 </r>
       <r>    2.2374    0.0000 </r>
       <r>    2.6355    0.0000 </r>
      </set>
      <set comment="kpoint 23">
       <r>  -21.3855    1.0000 </r>
[...]
       <r>   -9.2403    1.0000 </r>
       <r>   -5.5778    1.0000 </r>
       <r>   -5.5778    1.0000 </r>
       <r>   -0.4359    0.0000 </r>
       <r>   -0.4359    0.0000 </r>
       <r>    4.6864    0.0000 </r>
       <r>    4.6864    0.0000 </r>
      </set>
      <set comment="kpoint 209">
       <r>  -18.7927    1.0000 </r>
       <r>  -16.9959    1.0000 </r>
       <r>  -14.0866    1.0000 </r>
       <r>  -12.4500    1.0000 </r>
       <r>  -12.3945    1.0000 </r>
       <r>  -10.8657    1.0000 </r>
       <r>   -6.3883    1.0000 </r>
       <r>   -4.5000    1.0000 </r>
       <r>   -1.0321    0.0000 </r>
       <r>    1.1343    0.0000 </r>
       <r>    5.2638    0.0000 </r>
       <r>    6.0483    0.0000 </r>
      </set>
      <set comment="kpoint 210">
       <r>  -18.7831    1.0000 </r>
       <r>  -16.9882    1.0000 </r>
       <r>  -14.1682    1.0000 </r>
       <r>  -12.5254    1.0000 </r>
       <r>  -12.3051    1.0000 </r>
       <r>  -10.7926    1.0000 </r>
       <r>   -6.3796    1.0000 </r>
       <r>   -4.5031    1.0000 </r>
       <r>   -1.0410    0.0000 </r>
       <r>    1.1094    0.0000 </r>
       <r>    5.2772    0.0000 </r>
       <r>    6.0641    0.0000 </r>
      </set>
      <set comment="kpoint 211">
       <r>  -18.7543    1.0000 </r>
       <r>  -16.9656    1.0000 </r>
       <r>  -14.3735    1.0000 </r>
       <r>  -12.7187    1.0000 </r>
       <r>  -12.0768    1.0000 </r>
       <r>  -10.6071    1.0000 </r>
       <r>   -6.3535    1.0000 </r>
       <r>   -4.5131    1.0000 </r>
       <r>   -1.0660    0.0000 </r>
       <r>    1.0364    0.0000 </r>
       <r>    5.3175    0.0000 </r>
       <r>    6.1113    0.0000 </r>
      </set>
      <set comment="kpoint 212">
       <r>  -18.7063    1.0000 </r>
       <r>  -16.9293    1.0000 </r>
       <r>  -14.6387    1.0000 </r>
       <r>  -12.9752    1.0000 </r>
       <r>  -11.7732    1.0000 </r>
       <r>  -10.3656    1.0000 </r>
       <r>   -6.3105    1.0000 </r>
       <r>   -4.5314    1.0000 </r>
       <r>   -1.1022    0.0000 </r>
       <r>    0.9205    0.0000 </r>
       <r>    5.3841    0.0000 </r>
       <r>    6.1888    0.0000 </r>
      </set>
      <set comment="kpoint 213">
       <r>  -18.6395    1.0000 </r>
       <r>  -16.8820    1.0000 </r>
       <r>  -14.9229    1.0000 </r>
       <r>  -13.2599    1.0000 </r>
       <r>  -11.4350    1.0000 </r>
       <r>  -10.1066    1.0000 </r>
       <r>   -6.2509    1.0000 </r>
       <r>   -4.5602    1.0000 </r>
       <r>   -1.1421    0.0000 </r>
       <r>    0.7690    0.0000 </r>
       <r>    5.4756    0.0000 </r>
       <r>    6.2953    0.0000 </r>
      </set>
      <set comment="kpoint 214">
       <r>  -18.5538    1.0000 </r>
       <r>  -16.8289    1.0000 </r>
       <r>  -15.2017    1.0000 </r>
       <r>  -13.5544    1.0000 </r>
       <r>  -11.0844    1.0000 </r>
       <r>   -9.8530    1.0000 </r>
       <r>   -6.1754    1.0000 </r>
       <r>   -4.6021    1.0000 </r>
       <r>   -1.1773    0.0000 </r>
       <r>    0.5903    0.0000 </r>
       <r>    5.5827    0.0000 </r>
       <r>    6.0063    0.0000 </r>
      </set>
      <set comment="kpoint 215">
       <r>  -18.4497    1.0000 </r>
       <r>  -16.7809    1.0000 </r>
       <r>  -15.4549    1.0000 </r>
       <r>  -13.8488    1.0000 </r>
       <r>  -10.7352    1.0000 </r>
       <r>   -9.6204    1.0000 </r>
       <r>   -6.0851    1.0000 </r>
       <r>   -4.6594    1.0000 </r>
       <r>   -1.1992    0.0000 </r>
       <r>    0.3930    0.0000 </r>
       <r>    5.4995    0.0000 </r>
       <r>    5.7979    0.0000 </r>
      </set>
      <set comment="kpoint 216">
       <r>  -18.3275    1.0000 </r>
       <r>  -16.7593    1.0000 </r>
       <r>  -15.6557    1.0000 </r>
       <r>  -14.1370    1.0000 </r>
       <r>  -10.3982    1.0000 </r>
       <r>   -9.4209    1.0000 </r>
       <r>   -5.9811    1.0000 </r>
       <r>   -4.7339    1.0000 </r>
       <r>   -1.2001    0.0000 </r>
       <r>    0.1853    0.0000 </r>
       <r>    5.1505    0.0000 </r>
       <r>    5.9479    0.0000 </r>
      </set>
      <set comment="kpoint 217">
       <r>  -18.1878    1.0000 </r>
       <r>  -16.7963    1.0000 </r>
       <r>  -15.7688    1.0000 </r>
       <r>  -14.4152    1.0000 </r>
       <r>  -10.0828    1.0000 </r>
       <r>   -9.2650    1.0000 </r>
       <r>   -5.8652    1.0000 </r>
       <r>   -4.8259    1.0000 </r>
       <r>   -1.1747    0.0000 </r>
       <r>   -0.0255    0.0000 </r>
       <r>    4.8557    0.0000 </r>
       <r>    5.6798    0.0000 </r>
      </set>
      <set comment="kpoint 218">
       <r>  -18.0314    1.0000 </r>
       <r>  -16.9100    1.0000 </r>
       <r>  -15.7742    1.0000 </r>
       <r>  -14.6803    1.0000 </r>
       <r>   -9.7981    1.0000 </r>
       <r>   -9.1612    1.0000 </r>
       <r>   -5.7391    1.0000 </r>
       <r>   -4.9341    1.0000 </r>
       <r>   -1.1198    0.0000 </r>
       <r>   -0.2329    0.0000 </r>
       <r>    4.6424    0.0000 </r>
       <r>    5.2857    0.0000 </r>
      </set>
      <set comment="kpoint 219">
       <r>  -17.8595    1.0000 </r>
       <r>  -17.0805    1.0000 </r>
       <r>  -15.6908    1.0000 </r>
       <r>  -14.9296    1.0000 </r>
       <r>   -9.5531    1.0000 </r>
       <r>   -9.1162    1.0000 </r>
       <r>   -5.6052    1.0000 </r>
       <r>   -5.0560    1.0000 </r>
       <r>   -1.0345    0.0000 </r>
       <r>   -0.4309    0.0000 </r>
       <r>    4.5192    0.0000 </r>
       <r>    4.9612    0.0000 </r>
      </set>
      <set comment="kpoint 220">
       <r>  -17.6739    1.0000 </r>
       <r>  -17.2764    1.0000 </r>
       <r>  -15.5490    1.0000 </r>
       <r>  -15.1603    1.0000 </r>
       <r>   -9.3562    1.0000 </r>
       <r>   -9.1338    1.0000 </r>
       <r>   -5.4665    1.0000 </r>
       <r>   -5.1880    1.0000 </r>
       <r>   -0.9201    0.0000 </r>
       <r>   -0.6145    0.0000 </r>
       <r>    4.4904    0.0000 </r>
       <r>    4.7156    0.0000 </r>
      </set>
      <set comment="kpoint 221">
       <r>  -17.4777    1.0000 </r>
       <r>  -17.4777    1.0000 </r>
       <r>  -15.3687    1.0000 </r>
       <r>  -15.3687    1.0000 </r>
       <r>   -9.2146    1.0000 </r>
       <r>   -9.2146    1.0000 </r>
       <r>   -5.3262    1.0000 </r>
       <r>   -5.3262    1.0000 </r>
       <r>   -0.7789    0.0000 </r>
       <r>   -0.7789    0.0000 </r>
       <r>    4.5568    0.0000 </r>
       <r>    4.5568    0.0000 </r>
      </set>
      <set comment="kpoint 222">
       <r>  -18.3686    1.0000 </r>
       <r>  -17.4665    1.0000 </r>
       <r>  -13.7078    1.0000 </r>
       <r>  -12.8887    1.0000 </r>
       <r>  -12.0447    1.0000 </r>
       <r>  -11.2755    1.0000 </r>
       <r>   -5.9281    1.0000 </r>
       <r>   -4.9785    1.0000 </r>
       <r>   -0.5237    0.0000 </r>
       <r>    0.5617    0.0000 </r>
       <r>    5.8654    0.0000 </r>
       <r>    6.6112    0.0000 </r>
      </set>
      <set comment="kpoint 223">
       <r>  -18.3591    1.0000 </r>
       <r>  -17.4578    1.0000 </r>
       <r>  -13.7894    1.0000 </r>
       <r>  -12.9667    1.0000 </r>
       <r>  -11.9580    1.0000 </r>
       <r>  -11.1972    1.0000 </r>
       <r>   -5.9207    1.0000 </r>
       <r>   -4.9763    1.0000 </r>
       <r>   -0.5393    0.0000 </r>
       <r>    0.5388    0.0000 </r>
       <r>    5.8788    0.0000 </r>
       <r>    6.6280    0.0000 </r>
      </set>
      <set comment="kpoint 224">
       <r>  -18.3308    1.0000 </r>
       <r>  -17.4318    1.0000 </r>
       <r>  -13.9955    1.0000 </r>
       <r>  -13.1655    1.0000 </r>
       <r>  -11.7372    1.0000 </r>
       <r>  -10.9983    1.0000 </r>
       <r>   -5.8987    1.0000 </r>
       <r>   -4.9699    1.0000 </r>
       <r>   -0.5845    0.0000 </r>
       <r>    0.4720    0.0000 </r>
       <r>    5.9188    0.0000 </r>
       <r>    6.6777    0.0000 </r>
      </set>
      <set comment="kpoint 225">
       <r>  -18.2838    1.0000 </r>
       <r>  -17.3891    1.0000 </r>
       <r>  -14.2641    1.0000 </r>
       <r>  -13.4278    1.0000 </r>
       <r>  -11.4453    1.0000 </r>
       <r>  -10.7378    1.0000 </r>
       <r>   -5.8624    1.0000 </r>
       <r>   -4.9606    1.0000 </r>
       <r>   -0.6543    0.0000 </r>
       <r>    0.3663    0.0000 </r>
       <r>    5.9848    0.0000 </r>
       <r>    6.7589    0.0000 </r>
      </set>
      <set comment="kpoint 226">
       <r>  -18.2182    1.0000 </r>
       <r>  -17.3304    1.0000 </r>
       <r>  -14.5565    1.0000 </r>
       <r>  -13.7172    1.0000 </r>
       <r>  -11.1226    1.0000 </r>
       <r>  -10.4550    1.0000 </r>
       <r>   -5.8127    1.0000 </r>
       <r>   -4.9502    1.0000 </r>
       <r>   -0.7412    0.0000 </r>
       <r>    0.2289    0.0000 </r>
       <r>    6.0737    0.0000 </r>
       <r>    6.7751    0.0000 </r>
      </set>
      <set comment="kpoint 227">
       <r>  -18.1345    1.0000 </r>
       <r>  -17.2575    1.0000 </r>
       <r>  -14.8523    1.0000 </r>
       <r>  -14.0151    1.0000 </r>
       <r>  -10.7916    1.0000 </r>
       <r>  -10.1726    1.0000 </r>
       <r>   -5.7507    1.0000 </r>
       <r>   -4.9410    1.0000 </r>
       <r>   -0.8360    0.0000 </r>
       <r>    0.0684    0.0000 </r>
       <r>    6.1272    0.0000 </r>
       <r>    6.3208    0.0000 </r>
      </set>
      <set comment="kpoint 228">
       <r>  -18.0330    1.0000 </r>
       <r>  -17.1730    1.0000 </r>
       <r>  -15.1391    1.0000 </r>
       <r>  -14.3113    1.0000 </r>
       <r>  -10.4665    1.0000 </r>
       <r>   -9.9058    1.0000 </r>
       <r>   -5.6779    1.0000 </r>
       <r>   -4.9363    1.0000 </r>
       <r>   -0.9291    0.0000 </r>
       <r>   -0.1063    0.0000 </r>
       <r>    5.7489    0.0000 </r>
       <r>    6.3113    0.0000 </r>
      </set>
      <set comment="kpoint 229">
       <r>  -17.9146    1.0000 </r>
       <r>  -17.0826    1.0000 </r>
       <r>  -15.4063    1.0000 </r>
       <r>  -14.5997    1.0000 </r>
       <r>  -10.1584    1.0000 </r>
       <r>   -9.6666    1.0000 </r>
       <r>   -5.5961    1.0000 </r>
       <r>   -4.9392    1.0000 </r>
       <r>   -1.0107    0.0000 </r>
       <r>   -0.2865    0.0000 </r>
       <r>    5.3411    0.0000 </r>
       <r>    5.8341    0.0000 </r>
      </set>
      <set comment="kpoint 230">
       <r>  -17.7802    1.0000 </r>
       <r>  -16.9968    1.0000 </r>
       <r>  -15.6398    1.0000 </r>
       <r>  -14.8759    1.0000 </r>
       <r>   -9.8773    1.0000 </r>
       <r>   -9.4653    1.0000 </r>
       <r>   -5.5077    1.0000 </r>
       <r>   -4.9532    1.0000 </r>
       <r>   -1.0721    0.0000 </r>
       <r>   -0.4641    0.0000 </r>
       <r>    4.9982    0.0000 </r>
       <r>    5.4124    0.0000 </r>
      </set>
      <set comment="kpoint 231">
       <r>  -17.6318    1.0000 </r>
       <r>  -16.9371    1.0000 </r>
       <r>  -15.8165    1.0000 </r>
       <r>  -15.1359    1.0000 </r>
       <r>   -9.6324    1.0000 </r>
       <r>   -9.3113    1.0000 </r>
       <r>   -5.4156    1.0000 </r>
       <r>   -4.9807    1.0000 </r>
       <r>   -1.1064    0.0000 </r>
       <r>   -0.6316    0.0000 </r>
       <r>    4.7331    0.0000 </r>
       <r>    5.0569    0.0000 </r>
      </set>
      <set comment="kpoint 232">
       <r>  -17.4723    1.0000 </r>
       <r>  -16.9360    1.0000 </r>
       <r>  -15.9026    1.0000 </r>
       <r>  -15.3754    1.0000 </r>
       <r>   -9.4327    1.0000 </r>
       <r>   -9.2123    1.0000 </r>
       <r>   -5.3232    1.0000 </r>
       <r>   -5.0233    1.0000 </r>
       <r>   -1.1085    0.0000 </r>
       <r>   -0.7821    0.0000 </r>
       <r>    4.5546    0.0000 </r>
       <r>    4.7773    0.0000 </r>
      </set>
      <set comment="kpoint 233">
       <r>  -17.3072    1.0000 </r>
       <r>  -17.0126    1.0000 </r>
       <r>  -15.8781    1.0000 </r>
       <r>  -15.5880    1.0000 </r>
       <r>   -9.2861    1.0000 </r>
       <r>   -9.1738    1.0000 </r>
       <r>   -5.2341    1.0000 </r>
       <r>   -5.0810    1.0000 </r>
       <r>   -1.0759    0.0000 </r>
       <r>   -0.9097    0.0000 </r>
       <r>    4.4686    0.0000 </r>
       <r>    4.5821    0.0000 </r>
      </set>
      <set comment="kpoint 234">
       <r>  -17.1470    1.0000 </r>
       <r>  -17.1470    1.0000 </r>
       <r>  -15.7625    1.0000 </r>
       <r>  -15.7625    1.0000 </r>
       <r>   -9.1986    1.0000 </r>
       <r>   -9.1986    1.0000 </r>
       <r>   -5.1522    1.0000 </r>
       <r>   -5.1522    1.0000 </r>
       <r>   -1.0089    0.0000 </r>
       <r>   -1.0089    0.0000 </r>
       <r>    4.4780    0.0000 </r>
       <r>    4.4780    0.0000 </r>
      </set>
      <set comment="kpoint 235">
       <r>  -17.9255    1.0000 </r>
       <r>  -17.9255    1.0000 </r>
       <r>  -13.3082    1.0000 </r>
       <r>  -13.3082    1.0000 </r>
       <r>  -11.6699    1.0000 </r>
       <r>  -11.6699    1.0000 </r>
       <r>   -5.4565    1.0000 </r>
       <r>   -5.4565    1.0000 </r>
       <r>    0.0083    0.0000 </r>
       <r>    0.0083    0.0000 </r>
       <r>    6.4987    0.0000 </r>
       <r>    6.4987    0.0000 </r>
      </set>
      <set comment="kpoint 236">
       <r>  -17.9164    1.0000 </r>
       <r>  -17.9164    1.0000 </r>
       <r>  -13.3885    1.0000 </r>
       <r>  -13.3885    1.0000 </r>
       <r>  -11.5870    1.0000 </r>
       <r>  -11.5870    1.0000 </r>
       <r>   -5.4511    1.0000 </r>
       <r>   -5.4511    1.0000 </r>
       <r>   -0.0117    0.0000 </r>
       <r>   -0.0117    0.0000 </r>
       <r>    6.5120    0.0000 </r>
       <r>    6.5120    0.0000 </r>
      </set>
      <set comment="kpoint 237">
       <r>  -17.8889    1.0000 </r>
       <r>  -17.8889    1.0000 </r>
       <r>  -13.5918    1.0000 </r>
       <r>  -13.5918    1.0000 </r>
       <r>  -11.3762    1.0000 </r>
       <r>  -11.3762    1.0000 </r>
       <r>   -5.4351    1.0000 </r>
       <r>   -5.4351    1.0000 </r>
       <r>   -0.0698    0.0000 </r>
       <r>   -0.0698    0.0000 </r>
       <r>    6.5518    0.0000 </r>
       <r>    6.5518    0.0000 </r>
      </set>
      <set comment="kpoint 238">
       <r>  -17.8433    1.0000 </r>
       <r>  -17.8433    1.0000 </r>
       <r>  -13.8585    1.0000 </r>
       <r>  -13.8585    1.0000 </r>
       <r>  -11.0989    1.0000 </r>
       <r>  -11.0989    1.0000 </r>
       <r>   -5.4093    1.0000 </r>
       <r>   -5.4093    1.0000 </r>
       <r>   -0.1611    0.0000 </r>
       <r>   -0.1611    0.0000 </r>
       <r>    6.6167    0.0000 </r>
       <r>    6.6167    0.0000 </r>
      </set>
      <set comment="kpoint 239">
       <r>  -17.7800    1.0000 </r>
       <r>  -17.7800    1.0000 </r>
       <r>  -14.1510    1.0000 </r>
       <r>  -14.1510    1.0000 </r>
       <r>  -10.7948    1.0000 </r>
       <r>  -10.7948    1.0000 </r>
       <r>   -5.3748    1.0000 </r>
       <r>   -5.3748    1.0000 </r>
       <r>   -0.2782    0.0000 </r>
       <r>   -0.2782    0.0000 </r>
       <r>    6.6977    0.0000 </r>
       <r>    6.6977    0.0000 </r>
      </set>
      <set comment="kpoint 240">
       <r>  -17.6997    1.0000 </r>
       <r>  -17.6997    1.0000 </r>
       <r>  -14.4502    1.0000 </r>
       <r>  -14.4502    1.0000 </r>
       <r>  -10.4865    1.0000 </r>
       <r>  -10.4865    1.0000 </r>
       <r>   -5.3333    1.0000 </r>
       <r>   -5.3333    1.0000 </r>
       <r>   -0.4124    0.0000 </r>
       <r>   -0.4124    0.0000 </r>
       <r>    6.5023    0.0000 </r>
       <r>    6.5023    0.0000 </r>
      </set>
      <set comment="kpoint 241">
       <r>  -17.6033    1.0000 </r>
       <r>  -17.6033    1.0000 </r>
       <r>  -14.7454    1.0000 </r>
       <r>  -14.7454    1.0000 </r>
       <r>  -10.1889    1.0000 </r>
       <r>  -10.1889    1.0000 </r>
       <r>   -5.2872    1.0000 </r>
       <r>   -5.2872    1.0000 </r>
       <r>   -0.5543    0.0000 </r>
       <r>   -0.5543    0.0000 </r>
       <r>    6.0156    0.0000 </r>
       <r>    6.0156    0.0000 </r>
      </set>
      <set comment="kpoint 242">
       <r>  -17.4926    1.0000 </r>
       <r>  -17.4926    1.0000 </r>
       <r>  -15.0296    1.0000 </r>
       <r>  -15.0296    1.0000 </r>
       <r>   -9.9135    1.0000 </r>
       <r>   -9.9135    1.0000 </r>
       <r>   -5.2392    1.0000 </r>
       <r>   -5.2392    1.0000 </r>
       <r>   -0.6944    0.0000 </r>
       <r>   -0.6944    0.0000 </r>
       <r>    5.5693    0.0000 </r>
       <r>    5.5693    0.0000 </r>
      </set>
      <set comment="kpoint 243">
       <r>  -17.3705    1.0000 </r>
       <r>  -17.3705    1.0000 </r>
       <r>  -15.2968    1.0000 </r>
       <r>  -15.2968    1.0000 </r>
       <r>   -9.6704    1.0000 </r>
       <r>   -9.6704    1.0000 </r>
       <r>   -5.1926    1.0000 </r>
       <r>   -5.1926    1.0000 </r>
       <r>   -0.8239    0.0000 </r>
       <r>   -0.8239    0.0000 </r>
       <r>    5.1844    0.0000 </r>
       <r>    5.1844    0.0000 </r>
      </set>
      <set comment="kpoint 244">
       <r>  -17.2424    1.0000 </r>
       <r>  -17.2424    1.0000 </r>
       <r>  -15.5393    1.0000 </r>
       <r>  -15.5393    1.0000 </r>
       <r>   -9.4692    1.0000 </r>
       <r>   -9.4692    1.0000 </r>
       <r>   -5.1509    1.0000 </r>
       <r>   -5.1509    1.0000 </r>
       <r>   -0.9345    0.0000 </r>
       <r>   -0.9345    0.0000 </r>
       <r>    4.8719    0.0000 </r>
       <r>    4.8719    0.0000 </r>
      </set>
      <set comment="kpoint 245">
       <r>  -17.1191    1.0000 </r>
       <r>  -17.1191    1.0000 </r>
       <r>  -15.7451    1.0000 </r>
       <r>  -15.7451    1.0000 </r>
       <r>   -9.3184    1.0000 </r>
       <r>   -9.3184    1.0000 </r>
       <r>   -5.1179    1.0000 </r>
       <r>   -5.1179    1.0000 </r>
       <r>   -1.0193    0.0000 </r>
       <r>   -1.0193    0.0000 </r>
       <r>    4.6411    0.0000 </r>
       <r>    4.6411    0.0000 </r>
      </set>
      <set comment="kpoint 246">
       <r>  -17.0216    1.0000 </r>
       <r>  -17.0216    1.0000 </r>
       <r>  -15.8924    1.0000 </r>
       <r>  -15.8924    1.0000 </r>
       <r>   -9.2248    1.0000 </r>
       <r>   -9.2248    1.0000 </r>
       <r>   -5.0966    1.0000 </r>
       <r>   -5.0966    1.0000 </r>
       <r>   -1.0726    0.0000 </r>
       <r>   -1.0726    0.0000 </r>
       <r>    4.4993    0.0000 </r>
       <r>    4.4993    0.0000 </r>
      </set>
      <set comment="kpoint 247">
       <r>  -16.9826    1.0000 </r>
       <r>  -16.9826    1.0000 </r>
       <r>  -15.9481    1.0000 </r>
       <r>  -15.9481    1.0000 </r>
       <r>   -9.1931    1.0000 </r>
       <r>   -9.1931    1.0000 </r>
       <r>   -5.0893    1.0000 </r>
       <r>   -5.0893    1.0000 </r>
       <r>   -1.0908    0.0000 </r>
       <r>   -1.0908    0.0000 </r>
       <r>    4.4515    0.0000 </r>
       <r>    4.4515    0.0000 </r>
      </set>
     </set>
    </set>
   </array>
  </eigenvalues>
  <separator name="orbital magnetization" >
   <v name="MAGDIPOLOUT">      0.00000000      0.00000000      0.00000000</v>
  </separator>
 </calculation>
 <structure name="finalpos" >
  <crystal>
   <varray name="basis" >
    <v>       4.29611911       0.00000000       0.00000000 </v>
    <v>       0.00000000       2.46479026       0.00000000 </v>
    <v>       0.00000000       0.00000000      19.91096928 </v>
   </varray>
   <i name="volume">    210.83790140 </i>
   <varray name="rec_basis" >
    <v>       0.23276822       0.00000000       0.00000000 </v>
    <v>       0.00000000       0.40571403       0.00000000 </v>
    <v>       0.00000000       0.00000000       0.05022357 </v>
   </varray>
  </crystal>
  <varray name="positions" >
   <v>       0.99986764      -0.00000000      -0.00000000 </v>
   <v>       0.16679902       0.50000000       0.00000000 </v>
   <v>       0.49986764       0.50000000      -0.00000000 </v>
   <v>       0.66679902      -0.00000000       0.00000000 </v>
  </varray>
 </structure>
</modeling>
