gr                                      
           1
     4.296119    0.000000    0.000000
     0.000000    2.464790    0.000000
     0.000000    0.000000   19.910969
   C 
   4
Direct configuration=     1
   0.99987391  0.00000000  0.00000000
   0.16679275  0.50000000  0.00000000
   0.49987391  0.50000000  0.00000000
   0.66679275  0.00000000  0.00000000
Direct configuration=     2
   0.99984278  0.00000000 -0.00000000
   0.16682388  0.50000000  0.00000000
   0.49984278  0.50000000 -0.00000000
   0.66682388 -0.00000000  0.00000000
Direct configuration=     3
   0.99986764 -0.00000000 -0.00000000
   0.16679903  0.50000000  0.00000000
   0.49986764  0.50000000 -0.00000000
   0.66679903 -0.00000000  0.00000000
Direct configuration=     4
   0.99986765 -0.00000000 -0.00000000
   0.16679902  0.50000000  0.00000000
   0.49986765  0.50000000 -0.00000000
   0.66679902 -0.00000000  0.00000000
Direct configuration=     5
   0.99986764 -0.00000000 -0.00000000
   0.16679902  0.50000000  0.00000000
   0.49986764  0.50000000 -0.00000000
   0.66679902 -0.00000000  0.00000000
