 running on    8 total cores
 distrk:  each k-point on    8 cores,    1 groups
 distr:  one band on    2 cores,    4 groups
 using from now: INCAR     
 vasp.5.3.5 31Mar14 (build Mar 02 2015 18:14:16) complex                        
  
 POSCAR found type information on POSCAR  C 
 POSCAR found :  1 types and       4 ions
 LDA part: xc-table for Pade appr. of Perdew
 POSCAR, INCAR and KPOINTS ok, starting setup
 WARNING: small aliasing (wrap around) errors must be expected
 FFT: planning ...
 WAVECAR not read
 entering main loop
       N       E                     dE             d eps       ncg     rms          rms(c)
DAV:   1     0.188206116703E+03    0.18821E+03   -0.10581E+04  5928   0.274E+03
DAV:   2    -0.913027079154E+01   -0.19734E+03   -0.17524E+03 10416   0.257E+02
DAV:   3    -0.382803659082E+02   -0.29150E+02   -0.28517E+02  7356   0.119E+02    0.724E+00
RMM:   4    -0.376553181830E+02    0.62505E+00   -0.93733E+00  5928   0.262E+01    0.420E+00
RMM:   5    -0.369102299342E+02    0.74509E+00   -0.27997E+00  5931   0.114E+01    0.730E-01
RMM:   6    -0.369117573052E+02   -0.15274E-02   -0.84265E-02  6369   0.203E+00    0.518E-01
RMM:   7    -0.369026508293E+02    0.91065E-02   -0.33869E-02  5943   0.160E+00    0.343E-01
RMM:   8    -0.368971061261E+02    0.55447E-02   -0.73865E-03  5935   0.567E-01    0.137E-01
RMM:   9    -0.368968329128E+02    0.27321E-03   -0.21265E-02  5930   0.863E-01    0.162E-01
RMM:  10    -0.368966734005E+02    0.15951E-03   -0.28475E-03  5930   0.374E-01    0.298E-02
RMM:  11    -0.368992650033E+02   -0.25916E-02   -0.97179E-04  5935   0.178E-01    0.471E-02
RMM:  12    -0.369014368325E+02   -0.21718E-02   -0.54243E-03  5955   0.945E-02    0.152E-02
RMM:  13    -0.369136016687E+02   -0.12165E-01   -0.11409E-01  6085   0.398E-02    0.178E-02
RMM:  14    -0.369146861106E+02   -0.10844E-02   -0.73178E-03  6030   0.150E-02    0.178E-02
RMM:  15    -0.369147644280E+02   -0.78317E-04   -0.43932E-04  5931   0.152E-02    0.128E-02
RMM:  16    -0.369148875184E+02   -0.12309E-03   -0.97355E-05  5930   0.620E-02    0.168E-02
RMM:  17    -0.369148888736E+02   -0.13552E-05   -0.12879E-05  5930   0.267E-02    0.474E-03
RMM:  18    -0.369149127953E+02   -0.23922E-04   -0.31061E-05  5928   0.368E-02    0.130E-02
RMM:  19    -0.369149141447E+02   -0.13494E-05   -0.63406E-06  5928   0.183E-02    0.298E-03
RMM:  20    -0.369149172699E+02   -0.31253E-05   -0.11124E-06  5928   0.662E-03    0.839E-04
RMM:  21    -0.369149208027E+02   -0.35328E-05   -0.21545E-07  5933   0.365E-03    0.279E-03
RMM:  22    -0.369149220767E+02   -0.12739E-05   -0.46776E-07  5928   0.489E-03    0.251E-04
RMM:  23    -0.369149224054E+02   -0.32873E-06   -0.12362E-08  6212   0.789E-04    0.115E-04
RMM:  24    -0.369149225095E+02   -0.10408E-06   -0.31770E-09  5938   0.395E-04    0.909E-05
RMM:  25    -0.369149225135E+02   -0.39796E-08   -0.16933E-09  5929   0.287E-04    0.652E-05
RMM:  26    -0.369149225155E+02   -0.20733E-08   -0.20934E-10  4326   0.990E-05    0.397E-05
RMM:  27    -0.369149225141E+02    0.14415E-08   -0.27456E-10  4522   0.114E-04    0.685E-06
RMM:  28    -0.369149225144E+02   -0.33253E-09    0.11526E-12  3690   0.367E-05    0.618E-06
RMM:  29    -0.369149225146E+02   -0.20498E-09   -0.81007E-12  3493   0.346E-05    0.942E-07
RMM:  30    -0.369149225145E+02    0.91745E-10   -0.95574E-12  3176   0.290E-05
   1 F= -.36914923E+02 E0= -.36914907E+02  d E =-.369149E+02
 BRION: g(F)=  0.175E-05 g(S)=  0.000E+00
 bond charge predicted
       N       E                     dE             d eps       ncg     rms          rms(c)
DAV:   1    -0.369149197946E+02    0.27200E-05   -0.23570E-04  6412   0.145E-01    0.303E-03
RMM:   2    -0.369149199440E+02   -0.14934E-06   -0.38771E-06  5937   0.174E-02    0.219E-03
RMM:   3    -0.369149198422E+02    0.10178E-06   -0.65414E-07  5964   0.653E-03    0.556E-04
RMM:   4    -0.369149198283E+02    0.13847E-07   -0.40204E-08  6071   0.158E-03    0.159E-04
WARNING in EDDRMM: call to ZHEGV failed, returncode =   6  3  1
RMM:   5    -0.369149198302E+02   -0.18811E-08   -0.30713E-09  6094   0.398E-04    0.733E-05
RMM:   6    -0.369149198300E+02    0.24158E-09   -0.45892E-10  5204   0.170E-04    0.666E-06
RMM:   7    -0.369149198297E+02    0.29831E-09   -0.21791E-11  3764   0.558E-05    0.337E-06
RMM:   8    -0.369149198300E+02   -0.27228E-09   -0.15790E-11  3311   0.417E-05    0.144E-06
RMM:   9    -0.369149198300E+02   -0.81400E-10   -0.71917E-12  3027   0.320E-05
   2 F= -.36914920E+02 E0= -.36914906E+02  d E =0.268451E-05
 BRION: g(F)=  0.292E-04 g(S)=  0.000E+00 retain N=  1 mean eig= 0.20
 eig:   0.197
 bond charge predicted
       N       E                     dE             d eps       ncg     rms          rms(c)
DAV:   1    -0.369149226959E+02   -0.28659E-05   -0.15187E-04  6620   0.116E-01    0.244E-03
RMM:   2    -0.369149227796E+02   -0.83741E-07   -0.24125E-06  5936   0.139E-02    0.175E-03
RMM:   3    -0.369149226960E+02    0.83621E-07   -0.41237E-07  5961   0.519E-03    0.428E-04
RMM:   4    -0.369149226907E+02    0.52638E-08   -0.24416E-08  6071   0.124E-03    0.127E-04
WARNING in EDDRMM: call to ZHEGV failed, returncode =   6  3  1
RMM:   5    -0.369149226900E+02    0.68519E-09   -0.18998E-09  5934   0.316E-04    0.589E-05
RMM:   6    -0.369149226900E+02    0.62528E-10   -0.29040E-10  4371   0.138E-04
   3 F= -.36914923E+02 E0= -.36914907E+02  d E =-.285995E-05
 BRION: g(F)=  0.441E-11 g(S)=  0.000E+00 retain N=  1 mean eig= 0.20
 eig:   0.197
 bond charge predicted
       N       E                     dE             d eps       ncg     rms          rms(c)
DAV:   1    -0.369149226896E+02    0.47851E-09    0.56906E-09  4624   0.562E-05    0.376E-06
RMM:   2    -0.369149226901E+02   -0.53126E-09    0.24032E-12  2467   0.241E-05    0.237E-06
RMM:   3    -0.369149226897E+02    0.39290E-09   -0.17567E-12  2496   0.248E-05    0.137E-07
RMM:   4    -0.369149226900E+02   -0.25420E-09   -0.21450E-12  2215   0.231E-05    0.102E-07
RMM:   5    -0.369149226897E+02    0.21964E-09   -0.40272E-13  2124   0.218E-05    0.720E-08
RMM:   6    -0.369149226900E+02   -0.25943E-09   -0.80625E-13  2031   0.209E-05    0.324E-08
RMM:   7    -0.369149226900E+02    0.50932E-10   -0.10465E-13  1912   0.199E-05
   4 F= -.36914923E+02 E0= -.36914907E+02  d E =0.345608E-10
 BRION: g(F)=  0.304E-10 g(S)=  0.000E+00 retain N=  1 mean eig= 0.05
 eig:   0.054
 bond charge predicted
       N       E                     dE             d eps       ncg     rms          rms(c)
DAV:   1    -0.369149226895E+02    0.54285E-09    0.57102E-09  4632   0.327E-05    0.287E-07
RMM:   2    -0.369149226898E+02   -0.32617E-09   -0.42513E-13  1427   0.107E-05    0.178E-07
RMM:   3    -0.369149226899E+02   -0.10789E-09   -0.41243E-14  1403   0.107E-05    0.233E-08
RMM:   4    -0.369149226899E+02   -0.37630E-10   -0.43258E-13  1385   0.106E-05    0.831E-09
RMM:   5    -0.369149226897E+02    0.27603E-09    0.51646E-14  1265   0.105E-05    0.610E-09
RMM:   6    -0.369149226900E+02   -0.37721E-09   -0.18339E-13  1345   0.104E-05    0.384E-09
RMM:   7    -0.369149226898E+02    0.25670E-09    0.99509E-15  1169   0.105E-05    0.277E-09
RMM:   8    -0.369149226900E+02   -0.20350E-09   -0.13454E-13  1126   0.104E-05    0.257E-09
RMM:   9    -0.369149226899E+02    0.97771E-10    0.64146E-14  1028   0.104E-05
   5 F= -.36914923E+02 E0= -.36914907E+02  d E =0.700311E-10
 BRION: g(F)=  0.244E-11 g(S)=  0.000E+00 retain N=  1 mean eig= 0.08
 eig:   0.076
 bond charge predicted
       N       E                     dE             d eps       ncg     rms          rms(c)
DAV:   1    -0.369149226895E+02    0.52853E-09    0.57199E-09  4728   0.192E-05    0.491E-07
RMM:   2    -0.369149226901E+02   -0.67200E-09    0.30922E-14   798   0.646E-06    0.303E-07
RMM:   3    -0.369149226897E+02    0.44588E-09   -0.11612E-13  1081   0.641E-06    0.708E-09
RMM:   4    -0.369149226899E+02   -0.20145E-09   -0.80923E-14  1120   0.638E-06    0.326E-09
RMM:   5    -0.369149226899E+02   -0.37289E-10   -0.34540E-14   977   0.636E-06
   6 F= -.36914923E+02 E0= -.36914907E+02  d E =-.341061E-10
 BRION: g(F)=  0.185E-11 g(S)=  0.000E+00 retain N=  1 mean eig= 0.58
 eig:   0.584
 bond charge predicted
       N       E                     dE             d eps       ncg     rms          rms(c)
DAV:   1    -0.369149226892E+02    0.71350E-09    0.56382E-09  4524   0.883E-05    0.165E-06
RMM:   2    -0.369149226898E+02   -0.60231E-09    0.21873E-12  2134   0.219E-05    0.103E-06
RMM:   3    -0.369149226899E+02   -0.94133E-10    0.89851E-14  1595   0.219E-05    0.320E-08
RMM:   4    -0.369149226899E+02   -0.10800E-10   -0.12226E-12  1559   0.218E-05    0.455E-08
RMM:   5    -0.369149226900E+02   -0.91632E-10   -0.13479E-12   889   0.214E-05
   7 F= -.36914923E+02 E0= -.36914907E+02  d E =-.480895E-10
 BRION: g(F)=  0.671E-11 g(S)=  0.000E+00 retain N=  1 mean eig= 0.20
 eig:   0.201
 bond charge predicted
       N       E                     dE             d eps       ncg     rms          rms(c)
DAV:   1    -0.369149226895E+02    0.32389E-09    0.56838E-09  4372   0.583E-05    0.110E-06
RMM:   2    -0.369149226897E+02   -0.14393E-09    0.43973E-13   677   0.146E-05    0.682E-07
RMM:   3    -0.369149226899E+02   -0.20384E-09    0.35733E-14   486   0.140E-05    0.178E-08
RMM:   4    -0.369149226896E+02    0.27831E-09   -0.57937E-14   638   0.140E-05    0.771E-09
RMM:   5    -0.369149226901E+02   -0.44224E-09   -0.18977E-13   758   0.140E-05    0.207E-09
RMM:   6    -0.369149226901E+02    0.78444E-11    0.70026E-14   577   0.139E-05
   8 F= -.36914923E+02 E0= -.36914907E+02  d E =-.883347E-10
 BRION: g(F)=  0.516E-12 g(S)=  0.000E+00 retain N=  1 mean eig= 0.16
 eig:   0.157
 bond charge predicted
       N       E                     dE             d eps       ncg     rms          rms(c)
DAV:   1    -0.369149226894E+02    0.67007E-09    0.57156E-09  3300   0.145E-05    0.257E-07
RMM:   2    -0.369149226896E+02   -0.24443E-09    0.49014E-14   403   0.344E-06    0.158E-07
RMM:   3    -0.369149226899E+02   -0.23022E-09    0.84048E-14   903   0.337E-06    0.468E-09
RMM:   4    -0.369149226900E+02   -0.14711E-09    0.00000E+00   478   0.337E-06    0.168E-09
RMM:   5    -0.369149226898E+02    0.23999E-09    0.00000E+00   549   0.337E-06    0.343E-10
RMM:   6    -0.369149226898E+02   -0.18872E-10    0.00000E+00   403   0.337E-06
   9 F= -.36914923E+02 E0= -.36914907E+02  d E =0.261593E-09
 BRION: g(F)=  0.612E-12 g(S)=  0.000E+00 retain N=  1 mean eig= 0.08
 eig:   0.075
 bond charge predicted
       N       E                     dE             d eps       ncg     rms          rms(c)
DAV:   1    -0.369149226895E+02    0.26341E-09    0.57187E-09  3340   0.625E-06    0.578E-08
RMM:   2    -0.369149226897E+02   -0.23647E-09    0.00000E+00   538   0.214E-06    0.355E-08
RMM:   3    -0.369149226899E+02   -0.13472E-09    0.00000E+00   460   0.215E-06    0.107E-09
RMM:   4    -0.369149226898E+02    0.37176E-10    0.00000E+00   332   0.215E-06    0.596E-10
RMM:   5    -0.369149226898E+02    0.76511E-10    0.00000E+00   182   0.215E-06
  10 F= -.36914923E+02 E0= -.36914907E+02  d E =0.247837E-10
 BRION: g(F)=  0.433E-14 g(S)=  0.000E+00 retain N=  1 mean eig= 0.07
 eig:   0.069
 reached required accuracy - stopping structural energy minimisation
