    4    4  400    1
  0.5270948E+02  0.4265795E-09  0.2491480E-09  0.1983770E-08  0.5000000E-15
  1.000000000000000E-004
  CAR 
 gr                                      
     16    247     12
 
  0.0000000E+00  0.0000000E+00  0.0000000E+00  0.1157407E-02
    1      -22.185804
    2      -16.895027
    3      -15.929195
    4      -10.306542
    5       -9.289807
    6       -5.873424
    7       -5.764015
    8       -5.028580
    9       -1.098761
   10        0.531951
   11        1.331914
   12        1.718873
 
  0.4166667E-01  0.0000000E+00  0.0000000E+00  0.2314815E-02
    1      -22.175504
    2      -17.071451
    3      -15.737600
    4      -10.294269
    5       -9.279529
    6       -5.896456
    7       -5.805762
    8       -5.096482
    9       -1.015323
   10        0.545918
   11        1.346046
   12        1.733179
 
  0.8333333E-01  0.0000000E+00  0.0000000E+00  0.2314815E-02
    1      -22.144608
    2      -17.420187
    3      -15.343437
    4      -10.257469
    5       -9.248745
    6       -5.964253
    7       -5.929365
    8       -5.284401
    9       -0.780970
   10        0.587817
   11        1.388438
   12        1.776096
 
  0.1250000E+00  0.0000000E+00  0.0000000E+00  0.2314815E-02
    1      -22.093136
    2      -17.803401
    3      -14.884810
    4      -10.196199
    5       -9.197608
    6       -6.130177
    7       -6.073152
    8       -5.557579
    9       -0.430981
   10        0.657650
   11        1.459078
   12        1.847626
 
  0.1666667E+00  0.0000000E+00  0.0000000E+00  0.2314815E-02
    1      -22.021123
    2      -18.186903
    3      -14.396365
    4      -10.110556
    5       -9.126378
    6       -6.401227
    7       -6.217708
    8       -5.882114
    9       -0.000143
   10        0.755413
   11        1.557945
   12        1.947768
 
  0.2083333E+00  0.0000000E+00  0.0000000E+00  0.2314815E-02
    1      -21.928617
    2      -18.560560
    3      -13.888893
    4      -10.000681
    5       -9.035430
    6       -6.734118
    7       -6.391453
    8       -6.233164
    9        0.485449
   10        0.881101
   11        1.685008
   12        2.076523
 
  0.2500000E+00  0.0000000E+00  0.0000000E+00  0.2314815E-02
    1      -21.815681
    2      -18.920328
    3      -13.367308
    4       -9.866763
    5       -8.925267
    6       -7.119889
    7       -6.594380
    8       -6.587592
    9        1.007786
   10        1.034694
   11        1.840218
   12        2.233887
 
  0.2916667E+00  0.0000000E+00  0.0000000E+00  0.2314815E-02
    1      -21.682397
    2      -19.264197
    3      -12.834731
    4       -9.709045
    5       -8.796537
    6       -7.549685
    7       -6.955244
    8       -6.799542
    9        1.216166
   10        1.554227
   11        2.023504
   12        2.419859
 
  0.3333333E+00  0.0000000E+00  0.0000000E+00  0.2314815E-02
    1      -21.528860
    2      -19.590992
    3      -12.293712
    4       -9.527836
    5       -8.650054
    6       -8.015204
    7       -7.308890
    8       -7.021276
    9        1.425474
   10        2.115149
   11        2.234754
   12        2.634431
 
  0.3750000E+00  0.0000000E+00  0.0000000E+00  0.2314815E-02
    1      -21.355186
    2      -19.899943
    3      -11.746704
    4       -9.323523
    5       -8.508931
    6       -8.486824
    7       -7.650707
    8       -7.247469
    9        1.662564
   10        2.473772
   11        2.681867
   12        2.877592
 
  0.4166667E+00  0.0000000E+00  0.0000000E+00  0.2314815E-02
    1      -21.161508
    2      -20.190497
    3      -11.196294
    4       -9.096588
    5       -9.024221
    6       -8.308085
    7       -7.977496
    8       -7.473539
    9        1.927357
   10        2.740168
   11        3.149323
   12        3.244299
 
  0.4583333E+00  0.0000000E+00  0.0000000E+00  0.2314815E-02
    1      -20.947989
    2      -20.462234
    3      -10.645342
    4       -9.555279
    5       -8.847639
    6       -8.286969
    7       -8.115346
    8       -7.695612
    9        2.219745
   10        2.886543
   11        3.032916
   12        3.449582
 
  0.5000000E+00  0.0000000E+00  0.0000000E+00  0.1157407E-02
    1      -20.714822
    2      -20.714822
    3      -10.097093
    4      -10.097093
    5       -8.577440
    6       -8.577440
    7       -7.910446
    8       -7.910446
    9        2.539564
   10        2.539564
   11        3.347723
   12        3.347723
 
  0.0000000E+00  0.2777778E-01  0.0000000E+00  0.2314815E-02
    1      -22.172401
    2      -16.883501
    3      -15.918073
    4      -10.290571
    5       -9.350030
    6       -5.928882
    7       -5.795055
    8       -5.012302
    9       -1.103600
   10        0.550112
   11        1.350322
   12        1.737507
 
  0.4166667E-01  0.2777778E-01  0.0000000E+00  0.4629630E-02
    1      -22.162101
    2      -17.059776
    3      -15.726683
    4      -10.278302
    5       -9.339730
    6       -5.957072
    7       -5.830945
    8       -5.080361
    9       -1.020129
   10        0.564079
   11        1.364453
   12        1.751813
 
  0.8333333E-01  0.2777778E-01  0.0000000E+00  0.4629630E-02
    1      -22.131210
    2      -17.408273
    3      -15.332925
    4      -10.241515
    5       -9.308879
    6       -6.046130
    7       -5.931318
    8       -5.268638
    9       -0.785790
   10        0.605981
   11        1.406842
   12        1.794731
 
  0.1250000E+00  0.2777778E-01  0.0000000E+00  0.4629630E-02
    1      -22.079745
    2      -17.791270
    3      -14.874801
    4      -10.180267
    5       -9.257626
    6       -6.212097
    7       -6.072155
    8       -5.542178
    9       -0.436062
   10        0.675818
   11        1.477477
   12        1.866261
 
  0.1666667E+00  0.2777778E-01  0.0000000E+00  0.4629630E-02
    1      -22.007742
    2      -18.174582
    3      -14.386959
    4      -10.094655
    5       -9.186222
    6       -6.461599
    7       -6.234823
    8       -5.866974
    9       -0.005836
   10        0.773589
   11        1.576338
   12        1.966405
 
  0.2083333E+00  0.2777778E-01  0.0000000E+00  0.4629630E-02
    1      -21.915250
    2      -18.548075
    3      -13.880209
    4       -9.984819
    5       -9.095032
    6       -6.780672
    7       -6.418797
    8       -6.218172
    9        0.478778
   10        0.899286
   11        1.703393
   12        2.095161
 
  0.2500000E+00  0.2777778E-01  0.0000000E+00  0.4629630E-02
    1      -21.802332
    2      -18.907703
    3      -13.359488
    4       -9.850949
    5       -8.984546
    6       -7.156008
    7       -6.621911
    8       -6.579443
    9        0.999800
   10        1.052890
   11        1.858594
   12        2.252529
 
  0.2916667E+00  0.2777778E-01  0.0000000E+00  0.4629630E-02
    1      -21.669070
    2      -19.251451
    3      -12.827947
    4       -9.693287
    5       -8.855390
    6       -7.577329
    7       -6.940297
    8       -6.839180
    9        1.234374
   10        1.544633
   11        2.041870
   12        2.438504
 
  0.3333333E+00  0.2777778E-01  0.0000000E+00  0.4629630E-02
    1      -21.515559
    2      -19.578142
    3      -12.288176
    4       -9.512143
    5       -8.708355
    6       -8.035825
    7       -7.293892
    8       -7.065153
    9        1.443697
   10        2.103728
   11        2.253112
   12        2.653081
 
  0.3750000E+00  0.2777778E-01  0.0000000E+00  0.4629630E-02
    1      -21.341915
    2      -19.887003
    3      -11.742677
    4       -9.307903
    5       -8.544416
    6       -8.523721
    7       -7.635632
    8       -7.294772
    9        1.680803
   10        2.492128
   11        2.668582
   12        2.896248
 
  0.4166667E+00  0.2777778E-01  0.0000000E+00  0.4629630E-02
    1      -21.148274
    2      -20.177480
    3      -11.194093
    4       -9.081050
    5       -9.034185
    6       -8.364775
    7       -7.962331
    8       -7.523616
    9        1.945616
   10        2.758533
   11        3.167987
   12        3.226792
 
  0.4583333E+00  0.2777778E-01  0.0000000E+00  0.4629630E-02
    1      -20.934797
    2      -20.449149
    3      -10.645357
    4       -9.561263
    5       -8.832188
    6       -8.271708
    7       -8.170895
    8       -7.747927
    9        2.238030
   10        2.904939
   11        3.051313
   12        3.468262
 
  0.5000000E+00  0.2777778E-01  0.0000000E+00  0.2314815E-02
    1      -20.701680
    2      -20.701680
    3      -10.099802
    4      -10.099802
    5       -8.562083
    6       -8.562083
    7       -7.964559
    8       -7.964559
    9        2.557889
   10        2.557889
   11        3.366119
   12        3.366119
 
  0.0000000E+00  0.5555556E-01  0.0000000E+00  0.2314815E-02
    1      -22.132200
    2      -16.848928
    3      -15.884880
    4      -10.242692
    5       -9.525830
    6       -6.090883
    7       -5.887321
    8       -4.963488
    9       -1.118933
   10        0.604598
   11        1.405540
   12        1.793409
 
  0.4166667E-01  0.5555556E-01  0.0000000E+00  0.4629630E-02
    1      -22.121905
    2      -17.024766
    3      -15.694096
    4      -10.230437
    5       -9.515459
    6       -6.126338
    7       -5.913909
    8       -5.032035
    9       -1.035352
   10        0.618567
   11        1.419667
   12        1.807715
 
  0.8333333E-01  0.5555556E-01  0.0000000E+00  0.4629630E-02
    1      -22.091026
    2      -17.372557
    3      -15.301560
    4      -10.193689
    5       -9.484389
    6       -6.231059
    7       -5.992861
    8       -5.221413
    9       -0.801047
   10        0.660475
   11        1.462047
   12        1.850635
 
  0.1250000E+00  0.5555556E-01  0.0000000E+00  0.4629630E-02
    1      -22.039583
    2      -17.754901
    3      -14.844971
    4      -10.132506
    5       -9.432755
    6       -6.401611
    7       -6.120556
    8       -5.496061
    9       -0.452107
   10        0.730323
   11        1.532668
   12        1.922167
 
  0.1666667E+00  0.5555556E-01  0.0000000E+00  0.4629630E-02
    1      -21.967613
    2      -18.137643
    3      -14.358980
    4      -10.046986
    5       -9.360785
    6       -6.634721
    7       -6.289447
    8       -5.821655
    9       -0.023747
   10        0.828111
   11        1.631508
   12        2.022315
 
  0.2083333E+00  0.5555556E-01  0.0000000E+00  0.4629630E-02
    1      -21.875163
    2      -18.510645
    3      -13.854452
    4       -9.937269
    5       -9.268807
    6       -6.927069
    7       -6.489480
    8       -6.173298
    9        0.457886
   10        0.953830
   11        1.758536
   12        2.151076
 
  0.2500000E+00  0.5555556E-01  0.0000000E+00  0.4629630E-02
    1      -21.762298
    2      -18.869849
    3      -13.336403
    4       -9.803544
    5       -9.157262
    6       -7.273974
    7       -6.710702
    8       -6.534733
    9        0.974896
   10        1.107463
   11        1.913707
   12        2.308451
 
  0.2916667E+00  0.5555556E-01  0.0000000E+00  0.4629630E-02
    1      -21.629101
    2      -19.213232
    3      -12.808086
    4       -9.646054
    5       -9.026712
    6       -7.669001
    7       -6.944796
    8       -6.895553
    9        1.288980
   10        1.514822
   11        2.096953
   12        2.494435
 
  0.3333333E+00  0.5555556E-01  0.0000000E+00  0.4629630E-02
    1      -21.475668
    2      -19.539609
    3      -12.272216
    4       -9.465108
    5       -8.877864
    6       -8.104677
    7       -7.248986
    8       -7.185208
    9        1.498340
   10        2.068318
   11        2.308168
   12        2.709023
 
  0.3750000E+00  0.5555556E-01  0.0000000E+00  0.4629630E-02
    1      -21.302117
    2      -19.848199
    3      -11.731455
    4       -9.261091
    5       -8.711589
    6       -8.573396
    7       -7.590488
    8       -7.426753
    9        1.735487
   10        2.547172
   11        2.627359
   12        2.952205
 
  0.4166667E+00  0.5555556E-01  0.0000000E+00  0.4629630E-02
    1      -21.108584
    2      -20.138442
    3      -11.188645
    4       -9.068015
    5       -9.034486
    6       -8.528953
    7       -7.916910
    8       -7.665253
    9        2.000348
   10        2.813604
   11        3.181876
   12        3.223968
 
  0.4583333E+00  0.5555556E-01  0.0000000E+00  0.4629630E-02
    1      -20.895235
    2      -20.409910
    3      -10.646966
    4       -9.582111
    5       -8.785893
    6       -8.331253
    7       -8.225992
    8       -7.897291
    9        2.292824
   10        2.959990
   11        3.106489
   12        3.524282
 
  0.5000000E+00  0.5555556E-01  0.0000000E+00  0.2314815E-02
    1      -20.662267
    2      -20.662267
    3      -10.110053
    4      -10.110053
    5       -8.516072
    6       -8.516072
    7       -8.120063
    8       -8.120063
    9        2.612775
   10        2.612775
   11        3.421290
   12        3.421290
 
  0.0000000E+00  0.8333333E-01  0.0000000E+00  0.2314815E-02
    1      -22.065238
    2      -16.791319
    3      -15.830168
    4      -10.163005
    5       -9.803929
    6       -6.347629
    7       -6.038322
    8       -4.882198
    9       -1.147200
   10        0.695428
   11        1.497545
   12        1.886583
 
  0.4166667E-01  0.8333333E-01  0.0000000E+00  0.4629630E-02
    1      -22.054950
    2      -16.966476
    3      -15.640365
    4      -10.150772
    5       -9.793419
    6       -6.388298
    7       -6.056470
    8       -4.951609
    9       -1.063404
   10        0.709397
   11        1.511667
   12        1.900890
 
  0.8333333E-01  0.8333333E-01  0.0000000E+00  0.4629630E-02
    1      -22.024093
    2      -17.313119
    3      -15.249892
    4      -10.114091
    5       -9.761923
    6       -6.503160
    7       -6.116127
    8       -5.142925
    9       -0.829111
   10        0.751308
   11        1.554030
   12        1.943810
 
  0.1250000E+00  0.8333333E-01  0.0000000E+00  0.4629630E-02
    1      -21.972688
    2      -17.694377
    3      -14.795953
    4      -10.053022
    5       -9.709548
    6       -6.679033
    7       -6.224795
    8       -5.419502
    9       -0.481497
   10        0.821165
   11        1.624623
   12        2.015345
 
  0.1666667E+00  0.8333333E-01  0.0000000E+00  0.4629630E-02
    1      -21.900771
    2      -18.076165
    3      -14.313199
    4       -9.967659
    5       -9.636473
    6       -6.905730
    7       -6.383647
    8       -5.746465
    9       -0.056333
   10        0.918968
   11        1.723424
   12        2.115496
 
  0.2083333E+00  0.8333333E-01  0.0000000E+00  0.4629630E-02
    1      -21.808392
    2      -18.448339
    3      -13.812597
    4       -9.858146
    5       -9.542954
    6       -7.177443
    7       -6.586876
    8       -6.098861
    9        0.420179
   10        1.044711
   11        1.850404
   12        2.244263
 
  0.2500000E+00  0.8333333E-01  0.0000000E+00  0.4629630E-02
    1      -21.695617
    2      -18.806831
    3      -13.299311
    4       -9.724670
    5       -9.429327
    6       -7.491676
    7       -6.823730
    8       -6.460559
    9        0.930299
   10        1.198375
   11        2.005519
   12        2.401646
 
  0.2916667E+00  0.8333333E-01  0.0000000E+00  0.4629630E-02
    1      -21.562528
    2      -19.149599
    3      -12.776795
    4       -9.567475
    5       -9.296019
    6       -7.847486
    7       -7.081289
    8       -6.821304
    9        1.379931
   10        1.461790
   11        2.188703
   12        2.587642
 
  0.3333333E+00  0.8333333E-01  0.0000000E+00  0.4629630E-02
    1      -21.409226
    2      -19.475447
    3      -12.248022
    4       -9.386870
    5       -9.143556
    6       -8.243356
    7       -7.347484
    8       -7.174445
    9        1.589335
   10        2.005616
   11        2.399863
   12        2.802245
 
  0.3750000E+00  0.8333333E-01  0.0000000E+00  0.4629630E-02
    1      -21.235829
    2      -19.783581
    3      -11.715985
    4       -9.183237
    5       -8.972568
    6       -8.675801
    7       -7.613121
    8       -7.515528
    9        1.826530
   10        2.554354
   11        2.638837
   12        3.045447
 
  0.4166667E+00  0.8333333E-01  0.0000000E+00  0.4629630E-02
    1      -21.042478
    2      -20.073432
    3      -11.183950
    4       -9.139453
    5       -8.957058
    6       -8.783810
    7       -7.872159
    8       -7.841462
    9        2.091443
   10        2.905306
   11        3.100329
   12        3.317236
 
  0.4583333E+00  0.8333333E-01  0.0000000E+00  0.4629630E-02
    1      -20.829345
    2      -20.344562
    3      -10.655633
    4       -9.628044
    5       -8.708928
    6       -8.578180
    7       -8.150032
    8       -8.120841
    9        2.383983
   10        3.051397
   11        3.198388
   12        3.615096
 
  0.5000000E+00  0.8333333E-01  0.0000000E+00  0.2314815E-02
    1      -20.596627
    2      -20.596627
    3      -10.135335
    4      -10.135335
    5       -8.439600
    6       -8.439600
    7       -8.356752
    8       -8.356752
    9        2.704027
   10        2.704027
   11        3.513158
   12        3.513158
 
  0.0000000E+00  0.1111111E+00  0.0000000E+00  0.2314815E-02
    1      -21.971578
    2      -16.710694
    3      -15.754984
    4      -10.165772
    5      -10.051678
    6       -6.682946
    7       -6.244122
    8       -4.768533
    9       -1.192405
   10        0.822620
   11        1.626300
   12        2.017034
 
  0.4166667E-01  0.1111111E+00  0.0000000E+00  0.4629630E-02
    1      -21.961301
    2      -16.885003
    3      -15.566494
    4      -10.155021
    5      -10.039478
    6       -6.727488
    7       -6.254218
    8       -4.839272
    9       -1.108228
   10        0.836588
   11        1.640413
   12        2.031340
 
  0.8333333E-01  0.1111111E+00  0.0000000E+00  0.4629630E-02
    1      -21.930475
    2      -17.230104
    3      -15.178977
    4      -10.122786
    5      -10.002896
    6       -6.850309
    7       -6.293977
    8       -5.033537
    9       -0.873828
   10        0.878493
   11        1.682749
   12        2.074260
 
  0.1250000E+00  0.1111111E+00  0.0000000E+00  0.4629630E-02
    1      -21.879123
    2      -17.609848
    3      -14.728983
    4      -10.069121
    5       -9.941990
    6       -7.032041
    7       -6.378711
    8       -5.313000
    9       -0.528070
   10        0.948344
   11        1.753296
   12        2.145794
 
  0.1666667E+00  0.1111111E+00  0.0000000E+00  0.4629630E-02
    1      -21.807281
    2      -17.990286
    3      -14.251146
    4       -9.994112
    5       -9.856859
    6       -7.257916
    7       -6.516386
    8       -5.641970
    9       -0.107538
   10        1.046146
   11        1.852034
   12        2.245946
 
  0.2083333E+00  0.1111111E+00  0.0000000E+00  0.4629630E-02
    1      -21.715001
    2      -18.361285
    3      -13.756600
    4       -9.897873
    5       -9.747643
    6       -7.518842
    7       -6.706739
    8       -5.995437
    9        0.361521
   10        1.171898
   11        1.978932
   12        2.374718
 
  0.2500000E+00  0.1111111E+00  0.0000000E+00  0.4629630E-02
    1      -21.602351
    2      -18.718761
    3      -13.250780
    4       -9.780541
    5       -9.614532
    6       -7.810009
    7       -6.943212
    8       -6.357480
    9        0.861622
   10        1.325581
   11        2.133949
   12        2.532108
 
  0.2916667E+00  0.1111111E+00  0.0000000E+00  0.4629630E-02
    1      -21.469416
    2      -19.060655
    3      -12.737509
    4       -9.642263
    5       -9.457769
    6       -8.129998
    7       -7.214663
    8       -6.718073
    9        1.380861
   10        1.507163
   11        2.317025
   12        2.718115
 
  0.3333333E+00  0.1111111E+00  0.0000000E+00  0.4629630E-02
    1      -21.316297
    2      -19.385751
    3      -12.220256
    4       -9.483177
    5       -9.277663
    6       -8.479889
    7       -7.507134
    8       -7.070752
    9        1.716600
   10        1.910591
   11        2.528075
   12        2.932732
 
  0.3750000E+00  0.1111111E+00  0.0000000E+00  0.4629630E-02
    1      -21.143118
    2      -19.693237
    3      -11.702666
    4       -9.303400
    5       -9.074595
    6       -8.861686
    7       -7.806191
    8       -7.411192
    9        1.953830
   10        2.443989
   11        2.766969
   12        3.175952
 
  0.4166667E+00  0.1111111E+00  0.0000000E+00  0.4629630E-02
    1      -20.950026
    2      -19.982530
    3      -11.188853
    4       -9.276140
    5       -9.103002
    6       -8.849043
    7       -8.099617
    8       -7.736391
    9        2.218779
   10        2.975017
   11        3.033461
   12        3.447766
 
  0.4583333E+00  0.1111111E+00  0.0000000E+00  0.4629630E-02
    1      -20.737196
    2      -20.253181
    3      -10.683589
    4       -9.721240
    5       -8.882021
    6       -8.601597
    7       -8.379186
    8       -8.044193
    9        2.511356
   10        3.178893
   11        3.326858
   12        3.495178
 
  0.5000000E+00  0.1111111E+00  0.0000000E+00  0.2314815E-02
    1      -20.504833
    2      -20.504833
    3      -10.192370
    4      -10.192370
    5       -8.640572
    6       -8.640572
    7       -8.333000
    8       -8.333000
    9        2.831445
   10        2.831445
   11        3.641356
   12        3.641356
 
  0.0000000E+00  0.1388889E+00  0.0000000E+00  0.2314815E-02
    1      -21.851309
    2      -16.607084
    3      -15.661109
    4      -10.590773
    5       -9.908955
    6       -7.079536
    7       -6.499632
    8       -4.622637
    9       -1.259971
   10        0.986189
   11        1.791750
   12        2.184765
 
  0.4166667E-01  0.1388889E+00  0.0000000E+00  0.4629630E-02
    1      -21.841045
    2      -16.780501
    3      -15.474201
    4      -10.579616
    5       -9.896800
    6       -7.127354
    7       -6.501590
    8       -4.695325
    9       -1.175120
   10        1.000149
   11        1.805849
   12        2.199070
 
  0.8333333E-01  0.1388889E+00  0.0000000E+00  0.4629630E-02
    1      -21.810259
    2      -17.123742
    3      -15.090655
    4      -10.546131
    5       -9.860352
    6       -7.257319
    7       -6.520214
    8       -4.893843
    9       -0.940289
   10        1.042035
   11        1.848141
   12        2.241987
 
  0.1250000E+00  0.1388889E+00  0.0000000E+00  0.4629630E-02
    1      -21.758976
    2      -17.501547
    3      -14.646256
    4      -10.490269
    5       -9.799670
    6       -7.445465
    7       -6.577081
    8       -5.177361
    9       -0.596840
   10        1.111858
   11        1.918615
   12        2.313517
 
  0.1666667E+00  0.1388889E+00  0.0000000E+00  0.4629630E-02
    1      -21.687232
    2      -17.880223
    3      -14.175599
    4      -10.411934
    5       -9.714852
    6       -7.673716
    7       -6.685825
    8       -5.509068
    9       -0.182461
   10        1.209632
   11        2.017249
   12        2.413666
 
  0.2083333E+00  0.1388889E+00  0.0000000E+00  0.4629630E-02
    1      -21.595082
    2      -18.249676
    3      -13.690112
    4      -10.310959
    5       -9.606041
    6       -7.930720
    7       -6.851009
    8       -5.863931
    9        0.276626
   10        1.335360
   11        2.144012
   12        2.542436
 
  0.2500000E+00  0.1388889E+00  0.0000000E+00  0.4629630E-02
    1      -21.482594
    2      -18.605814
    3      -13.195730
    4      -10.187064
    5       -9.473428
    6       -8.209615
    7       -7.070420
    8       -6.226359
    9        0.763348
   10        1.489031
   11        2.298859
   12        2.699829
 
  0.2916667E+00  0.1388889E+00  0.0000000E+00  0.4629630E-02
    1      -21.349857
    2      -18.946557
    3      -12.696989
    4      -10.039803
    5       -9.317256
    6       -8.506823
    7       -7.336788
    8       -6.586666
    9        1.266287
   10        1.670614
   11        2.481735
   12        2.885842
 
  0.3333333E+00  0.1388889E+00  0.0000000E+00  0.4629630E-02
    1      -21.196977
    2      -19.270662
    3      -12.198332
    4       -9.868492
    5       -9.137834
    6       -8.821606
    7       -7.639019
    8       -6.938645
    9        1.777297
   10        1.880057
   11        2.692563
   12        3.100470
 
  0.3750000E+00  0.1388889E+00  0.0000000E+00  0.4629630E-02
    1      -21.024083
    2      -19.577297
    3      -11.704683
    4       -9.672148
    5       -9.155845
    6       -8.935542
    7       -7.963268
    8       -7.278151
    9        2.117295
   10        2.290135
   11        2.931241
   12        3.343705
 
  0.4166667E+00  0.1388889E+00  0.0000000E+00  0.4629630E-02
    1      -20.831327
    2      -19.865858
    3      -11.221708
    4       -9.513388
    5       -9.449513
    6       -8.710852
    7       -8.294264
    8       -7.602303
    9        2.382246
   10        2.799690
   11        3.197618
   12        3.615538
 
  0.4583333E+00  0.1388889E+00  0.0000000E+00  0.4629630E-02
    1      -20.618892
    2      -20.135881
    3      -10.755732
    4       -9.898415
    5       -9.199337
    6       -8.617382
    7       -8.464351
    8       -7.909025
    9        2.674815
   10        3.301447
   11        3.342307
   12        3.491380
 
  0.5000000E+00  0.1388889E+00  0.0000000E+00  0.2314815E-02
    1      -20.386992
    2      -20.386992
    3      -10.313044
    4      -10.313044
    5       -8.921244
    6       -8.921244
    7       -8.196769
    8       -8.196769
    9        2.994884
   10        2.994884
   11        3.778356
   12        3.778368
 
  0.0000000E+00  0.1666667E+00  0.0000000E+00  0.2314815E-02
    1      -21.704550
    2      -16.480528
    3      -15.551543
    4      -11.058317
    5       -9.735163
    6       -7.521247
    7       -6.798955
    8       -4.444699
    9       -1.356398
   10        1.186131
   11        1.993813
   12        2.389780
 
  0.4166667E-01  0.1666667E+00  0.0000000E+00  0.4629630E-02
    1      -21.694302
    2      -16.653217
    3      -15.366406
    4      -11.046465
    5       -9.723066
    6       -7.572120
    7       -6.792588
    8       -4.520226
    9       -1.270336
   10        1.200079
   11        2.007889
   12        2.404083
 
  0.8333333E-01  0.1666667E+00  0.0000000E+00  0.4629630E-02
    1      -21.663568
    2      -16.994395
    3      -14.988129
    4      -11.010829
    5       -9.686793
    6       -7.708998
    7       -6.789027
    8       -4.724789
    9       -1.034335
   10        1.241928
   11        2.050113
   12        2.446993
 
  0.1250000E+00  0.1666667E+00  0.0000000E+00  0.4629630E-02
    1      -21.612369
    2      -17.369836
    3      -14.551699
    4      -10.951149
    5       -9.626404
    6       -7.904059
    7       -6.815228
    8       -5.013856
    9       -0.693428
   10        1.311697
   11        2.120468
   12        2.518515
 
  0.1666667E+00  0.1666667E+00  0.0000000E+00  0.4629630E-02
    1      -21.540746
    2      -17.746301
    3      -14.091687
    4      -10.866948
    5       -9.541999
    6       -8.136608
    7       -6.889730
    8       -5.349140
    9       -0.286718
   10        1.409404
   11        2.218929
   12        2.618653
 
  0.2083333E+00  0.1666667E+00  0.0000000E+00  0.4629630E-02
    1      -21.448754
    2      -18.113800
    3      -13.620093
    4      -10.757454
    5       -9.433722
    6       -8.393762
    7       -7.021271
    8       -5.705707
    9        0.159775
   10        1.535066
   11        2.345457
   12        2.747413
 
  0.2500000E+00  0.1666667E+00  0.0000000E+00  0.4629630E-02
    1      -21.336467
    2      -18.468245
    3      -13.143847
    4      -10.621485
    5       -9.301764
    6       -8.667468
    7       -7.211394
    8       -6.068483
    9        0.629662
   10        1.688679
   11        2.499998
   12        2.904799
 
  0.2916667E+00  0.1666667E+00  0.0000000E+00  0.4629630E-02
    1      -21.203976
    2      -18.807529
    3      -12.668911
    4      -10.457322
    5       -9.146373
    6       -8.952755
    7       -7.456316
    8       -6.428263
    9        1.112251
   10        1.870217
   11        2.682477
   12        3.090811
 
  0.3333333E+00  0.1666667E+00  0.0000000E+00  0.4629630E-02
    1      -21.051392
    2      -19.130382
    3      -12.201584
    4      -10.262618
    5       -9.247015
    6       -8.967856
    7       -7.748240
    8       -6.779192
    9        1.600085
   10        2.079626
   11        2.892793
   12        3.305444
 
  0.3750000E+00  0.1666667E+00  0.0000000E+00  0.4629630E-02
    1      -20.878852
    2      -19.435943
    3      -11.748847
    4      -10.034569
    5       -9.549835
    6       -8.766593
    7       -8.076370
    8       -7.117367
    9        2.087589
   10        2.316832
   11        3.130796
   12        3.548689
 
  0.4166667E+00  0.1666667E+00  0.0000000E+00  0.4629630E-02
    1      -20.686517
    2      -19.723584
    3      -11.317812
    4       -9.863088
    5       -9.770753
    6       -8.543055
    7       -8.427638
    8       -7.440063
    9        2.570330
   10        2.581745
   11        3.396200
   12        3.820536
 
  0.4583333E+00  0.1666667E+00  0.0000000E+00  0.4629630E-02
    1      -20.474576
    2      -19.992818
    3      -10.914049
    4      -10.190964
    5       -9.471003
    6       -8.787280
    7       -8.297819
    8       -7.745302
    9        2.874256
   10        3.044534
   11        3.541536
   12        3.687198
 
  0.5000000E+00  0.1666667E+00  0.0000000E+00  0.2314815E-02
    1      -20.243255
    2      -20.243255
    3      -10.539369
    4      -10.539369
    5       -9.139802
    6       -9.139802
    7       -8.031602
    8       -8.031602
    9        3.194238
   10        3.194238
   11        3.506325
   12        3.506325
 