<?xml version="1.0" encoding="ISO-8859-1"?>
<modeling>
 <generator>
  <i name="program" type="string">vasp </i>
  <i name="version" type="string">5.3.5  </i>
  <i name="subversion" type="string">31Mar14 (build Mar 02 2015 18:14:16) complex                          parallel </i>
  <i name="platform" type="string">LinuxIFC </i>
  <i name="date" type="string">2018 08 09 </i>
  <i name="time" type="string">19:18:00 </i>
 </generator>
 <incar>
  <i type="string" name="SYSTEM">  gr</i>
  <i type="string" name="PREC">accurate : accuracy</i>
  <i type="string" name="ALGO"> FAST.</i>
  <i type="int" name="NELM">   100</i>
  <i type="int" name="NELMDL">    -3</i>
  <i type="int" name="NELMIN">     5</i>
  <i type="int" name="IBRION">     1</i>
  <i name="EDIFF">      0.00000000</i>
  <i name="EDIFFG">     -0.00000100</i>
  <i type="int" name="NSW">   400</i>
  <i type="int" name="ISIF">     2</i>
  <i name="ENCUT">   2000.00000000</i>
  <i type="int" name="ISMEAR">     0</i>
  <i name="SIGMA">      0.05000000</i>
  <i type="int" name="NWRITE">     2</i>
  <i type="logical" name="LWAVE"> F  </i>
  <i type="logical" name="LCHARG"> F  </i>
  <i type="int" name="NELM">   100</i>
 </incar>
 <kpoints>
  <generation param="Gamma">
   <v type="int" name="divisions">      24       36        1 </v>
   <v name="usershift">      0.00000000       0.00000000       0.00000000 </v>
   <v name="genvec1">      0.04166667       0.00000000       0.00000000 </v>
   <v name="genvec2">      0.00000000       0.02777778       0.00000000 </v>
   <v name="genvec3">      0.00000000       0.00000000       1.00000000 </v>
   <v name="shift">      0.00000000       0.00000000       0.00000000 </v>
  </generation>
  <varray name="kpointlist" >
   <v>       0.00000000       0.00000000       0.00000000 </v>
   <v>       0.04166667       0.00000000       0.00000000 </v>
   <v>       0.08333333       0.00000000       0.00000000 </v>
   <v>       0.12500000       0.00000000       0.00000000 </v>
   <v>       0.16666667       0.00000000       0.00000000 </v>
   <v>       0.20833333       0.00000000       0.00000000 </v>
   <v>       0.25000000       0.00000000       0.00000000 </v>
   <v>       0.29166667       0.00000000       0.00000000 </v>
   <v>       0.33333333       0.00000000       0.00000000 </v>
   <v>       0.37500000       0.00000000       0.00000000 </v>
   <v>       0.41666667       0.00000000       0.00000000 </v>
   <v>       0.45833333       0.00000000       0.00000000 </v>
   <v>       0.50000000       0.00000000       0.00000000 </v>
   <v>       0.00000000       0.02777778       0.00000000 </v>
   <v>       0.04166667       0.02777778       0.00000000 </v>
   <v>       0.08333333       0.02777778       0.00000000 </v>
   <v>       0.12500000       0.02777778       0.00000000 </v>
   <v>       0.16666667       0.02777778       0.00000000 </v>
   <v>       0.20833333       0.02777778       0.00000000 </v>
   <v>       0.25000000       0.02777778       0.00000000 </v>
   <v>       0.29166667       0.02777778       0.00000000 </v>
   <v>       0.33333333       0.02777778       0.00000000 </v>
   <v>       0.37500000       0.02777778       0.00000000 </v>
   <v>       0.41666667       0.02777778       0.00000000 </v>
   <v>       0.45833333       0.02777778       0.00000000 </v>
   <v>       0.50000000       0.02777778       0.00000000 </v>
   <v>       0.00000000       0.05555556       0.00000000 </v>
   <v>       0.04166667       0.05555556       0.00000000 </v>
   <v>       0.08333333       0.05555556       0.00000000 </v>
   <v>       0.12500000       0.05555556       0.00000000 </v>
   <v>       0.16666667       0.05555556       0.00000000 </v>
   <v>       0.20833333       0.05555556       0.00000000 </v>
   <v>       0.25000000       0.05555556       0.00000000 </v>
   <v>       0.29166667       0.05555556       0.00000000 </v>
   <v>       0.33333333       0.05555556       0.00000000 </v>
   <v>       0.37500000       0.05555556       0.00000000 </v>
   <v>       0.41666667       0.05555556       0.00000000 </v>
   <v>       0.45833333       0.05555556       0.00000000 </v>
   <v>       0.50000000       0.05555556       0.00000000 </v>
   <v>       0.00000000       0.08333333       0.00000000 </v>
   <v>       0.04166667       0.08333333       0.00000000 </v>
   <v>       0.08333333       0.08333333       0.00000000 </v>
   <v>       0.12500000       0.08333333       0.00000000 </v>
   <v>       0.16666667       0.08333333       0.00000000 </v>
   <v>       0.20833333       0.08333333       0.00000000 </v>
   <v>       0.25000000       0.08333333       0.00000000 </v>
   <v>       0.29166667       0.08333333       0.00000000 </v>
   <v>       0.33333333       0.08333333       0.00000000 </v>
   <v>       0.37500000       0.08333333       0.00000000 </v>
   <v>       0.41666667       0.08333333       0.00000000 </v>
   <v>       0.45833333       0.08333333       0.00000000 </v>
   <v>       0.50000000       0.08333333       0.00000000 </v>
   <v>       0.00000000       0.11111111       0.00000000 </v>
   <v>       0.04166667       0.11111111       0.00000000 </v>
   <v>       0.08333333       0.11111111       0.00000000 </v>
   <v>       0.12500000       0.11111111       0.00000000 </v>
   <v>       0.16666667       0.11111111       0.00000000 </v>
   <v>       0.20833333       0.11111111       0.00000000 </v>
   <v>       0.25000000       0.11111111       0.00000000 </v>
   <v>       0.29166667       0.11111111       0.00000000 </v>
   <v>       0.33333333       0.11111111       0.00000000 </v>
   <v>       0.37500000       0.11111111       0.00000000 </v>
   <v>       0.41666667       0.11111111       0.00000000 </v>
   <v>       0.45833333       0.11111111       0.00000000 </v>
   <v>       0.50000000       0.11111111       0.00000000 </v>
   <v>       0.00000000       0.13888889       0.00000000 </v>
   <v>       0.04166667       0.13888889       0.00000000 </v>
   <v>       0.08333333       0.13888889       0.00000000 </v>
   <v>       0.12500000       0.13888889       0.00000000 </v>
   <v>       0.16666667       0.13888889       0.00000000 </v>
   <v>       0.20833333       0.13888889       0.00000000 </v>
   <v>       0.25000000       0.13888889       0.00000000 </v>
   <v>       0.29166667       0.13888889       0.00000000 </v>
   <v>       0.33333333       0.13888889       0.00000000 </v>
   <v>       0.37500000       0.13888889       0.00000000 </v>
   <v>       0.41666667       0.13888889       0.00000000 </v>
   <v>       0.45833333       0.13888889       0.00000000 </v>
   <v>       0.50000000       0.13888889       0.00000000 </v>
   <v>       0.00000000       0.16666667       0.00000000 </v>
   <v>       0.04166667       0.16666667       0.00000000 </v>
   <v>       0.08333333       0.16666667       0.00000000 </v>
   <v>       0.12500000       0.16666667       0.00000000 </v>
   <v>       0.16666667       0.16666667       0.00000000 </v>
   <v>       0.20833333       0.16666667       0.00000000 </v>
   <v>       0.25000000       0.16666667       0.00000000 </v>
   <v>       0.29166667       0.16666667       0.00000000 </v>
   <v>       0.33333333       0.16666667       0.00000000 </v>
   <v>       0.37500000       0.16666667       0.00000000 </v>
   <v>       0.41666667       0.16666667       0.00000000 </v>
   <v>       0.45833333       0.16666667       0.00000000 </v>
   <v>       0.50000000       0.16666667       0.00000000 </v>
   <v>       0.00000000       0.19444444       0.00000000 </v>
   <v>       0.04166667       0.19444444       0.00000000 </v>
   <v>       0.08333333       0.19444444       0.00000000 </v>
   <v>       0.12500000       0.19444444       0.00000000 </v>
   <v>       0.16666667       0.19444444       0.00000000 </v>
   <v>       0.20833333       0.19444444       0.00000000 </v>
   <v>       0.25000000       0.19444444       0.00000000 </v>
   <v>       0.29166667       0.19444444       0.00000000 </v>
   <v>       0.33333333       0.19444444       0.00000000 </v>
   <v>       0.37500000       0.19444444       0.00000000 </v>
   <v>       0.41666667       0.19444444       0.00000000 </v>
   <v>       0.45833333       0.19444444       0.00000000 </v>
   <v>       0.50000000       0.19444444       0.00000000 </v>
   <v>       0.00000000       0.22222222       0.00000000 </v>
   <v>       0.04166667       0.22222222       0.00000000 </v>
   <v>       0.08333333       0.22222222       0.00000000 </v>
   <v>       0.12500000       0.22222222       0.00000000 </v>
   <v>       0.16666667       0.22222222       0.00000000 </v>
   <v>       0.20833333       0.22222222       0.00000000 </v>
   <v>       0.25000000       0.22222222       0.00000000 </v>
   <v>       0.29166667       0.22222222       0.00000000 </v>
   <v>       0.33333333       0.22222222       0.00000000 </v>
   <v>       0.37500000       0.22222222       0.00000000 </v>
   <v>       0.41666667       0.22222222       0.00000000 </v>
   <v>       0.45833333       0.22222222       0.00000000 </v>
   <v>       0.50000000       0.22222222       0.00000000 </v>
   <v>       0.00000000       0.25000000       0.00000000 </v>
   <v>       0.04166667       0.25000000       0.00000000 </v>
   <v>       0.08333333       0.25000000       0.00000000 </v>
   <v>       0.12500000       0.25000000       0.00000000 </v>
   <v>       0.16666667       0.25000000       0.00000000 </v>
   <v>       0.20833333       0.25000000       0.00000000 </v>
   <v>       0.25000000       0.25000000       0.00000000 </v>
   <v>       0.29166667       0.25000000       0.00000000 </v>
   <v>       0.33333333       0.25000000       0.00000000 </v>
   <v>       0.37500000       0.25000000       0.00000000 </v>
   <v>       0.41666667       0.25000000       0.00000000 </v>
   <v>       0.45833333       0.25000000       0.00000000 </v>
   <v>       0.50000000       0.25000000       0.00000000 </v>
   <v>       0.00000000       0.27777778       0.00000000 </v>
   <v>       0.04166667       0.27777778       0.00000000 </v>
   <v>       0.08333333       0.27777778       0.00000000 </v>
   <v>       0.12500000       0.27777778       0.00000000 </v>
   <v>       0.16666667       0.27777778       0.00000000 </v>
   <v>       0.20833333       0.27777778       0.00000000 </v>
   <v>       0.25000000       0.27777778       0.00000000 </v>
   <v>       0.29166667       0.27777778       0.00000000 </v>
   <v>       0.33333333       0.27777778       0.00000000 </v>
   <v>       0.37500000       0.27777778       0.00000000 </v>
   <v>       0.41666667       0.27777778       0.00000000 </v>
   <v>       0.45833333       0.27777778       0.00000000 </v>
   <v>       0.50000000       0.27777778       0.00000000 </v>
   <v>       0.00000000       0.30555556       0.00000000 </v>
   <v>       0.04166667       0.30555556       0.00000000 </v>
   <v>       0.08333333       0.30555556       0.00000000 </v>
   <v>       0.12500000       0.30555556       0.00000000 </v>
   <v>       0.16666667       0.30555556       0.00000000 </v>
   <v>       0.20833333       0.30555556       0.00000000 </v>
   <v>       0.25000000       0.30555556       0.00000000 </v>
   <v>       0.29166667       0.30555556       0.00000000 </v>
   <v>       0.33333333       0.30555556       0.00000000 </v>
   <v>       0.37500000       0.30555556       0.00000000 </v>
   <v>       0.41666667       0.30555556       0.00000000 </v>
   <v>       0.45833333       0.30555556       0.00000000 </v>
   <v>       0.50000000       0.30555556       0.00000000 </v>
   <v>       0.00000000       0.33333333       0.00000000 </v>
   <v>       0.04166667       0.33333333       0.00000000 </v>
   <v>       0.08333333       0.33333333       0.00000000 </v>
   <v>       0.12500000       0.33333333       0.00000000 </v>
   <v>       0.16666667       0.33333333       0.00000000 </v>
   <v>       0.20833333       0.33333333       0.00000000 </v>
   <v>       0.25000000       0.33333333       0.00000000 </v>
   <v>       0.29166667       0.33333333       0.00000000 </v>
   <v>       0.33333333       0.33333333       0.00000000 </v>
   <v>       0.37500000       0.33333333       0.00000000 </v>
   <v>       0.41666667       0.33333333       0.00000000 </v>
   <v>       0.45833333       0.33333333       0.00000000 </v>
   <v>       0.50000000       0.33333333       0.00000000 </v>
   <v>       0.00000000       0.36111111       0.00000000 </v>
   <v>       0.04166667       0.36111111       0.00000000 </v>
   <v>       0.08333333       0.36111111       0.00000000 </v>
   <v>       0.12500000       0.36111111       0.00000000 </v>
   <v>       0.16666667       0.36111111       0.00000000 </v>
   <v>       0.20833333       0.36111111       0.00000000 </v>
   <v>       0.25000000       0.36111111       0.00000000 </v>
   <v>       0.29166667       0.36111111       0.00000000 </v>
   <v>       0.33333333       0.36111111       0.00000000 </v>
   <v>       0.37500000       0.36111111       0.00000000 </v>
   <v>       0.41666667       0.36111111       0.00000000 </v>
   <v>       0.45833333       0.36111111       0.00000000 </v>
   <v>       0.50000000       0.36111111       0.00000000 </v>
   <v>       0.00000000       0.38888889       0.00000000 </v>
   <v>       0.04166667       0.38888889       0.00000000 </v>
   <v>       0.08333333       0.38888889       0.00000000 </v>
   <v>       0.12500000       0.38888889       0.00000000 </v>
   <v>       0.16666667       0.38888889       0.00000000 </v>
   <v>       0.20833333       0.38888889       0.00000000 </v>
   <v>       0.25000000       0.38888889       0.00000000 </v>
   <v>       0.29166667       0.38888889       0.00000000 </v>
   <v>       0.33333333       0.38888889       0.00000000 </v>
   <v>       0.37500000       0.38888889       0.00000000 </v>
   <v>       0.41666667       0.38888889       0.00000000 </v>
   <v>       0.45833333       0.38888889       0.00000000 </v>
   <v>       0.50000000       0.38888889       0.00000000 </v>
   <v>       0.00000000       0.41666667       0.00000000 </v>
   <v>       0.04166667       0.41666667       0.00000000 </v>
   <v>       0.08333333       0.41666667       0.00000000 </v>
   <v>       0.12500000       0.41666667       0.00000000 </v>
   <v>       0.16666667       0.41666667       0.00000000 </v>
   <v>       0.20833333       0.41666667       0.00000000 </v>
   <v>       0.25000000       0.41666667       0.00000000 </v>
   <v>       0.29166667       0.41666667       0.00000000 </v>
   <v>       0.33333333       0.41666667       0.00000000 </v>
   <v>       0.37500000       0.41666667       0.00000000 </v>
   <v>       0.41666667       0.41666667       0.00000000 </v>
   <v>       0.45833333       0.41666667       0.00000000 </v>
   <v>       0.50000000       0.41666667       0.00000000 </v>
   <v>       0.00000000       0.44444444       0.00000000 </v>
   <v>       0.04166667       0.44444444       0.00000000 </v>
   <v>       0.08333333       0.44444444       0.00000000 </v>
   <v>       0.12500000       0.44444444       0.00000000 </v>
   <v>       0.16666667       0.44444444       0.00000000 </v>
   <v>       0.20833333       0.44444444       0.00000000 </v>
   <v>       0.25000000       0.44444444       0.00000000 </v>
   <v>       0.29166667       0.44444444       0.00000000 </v>
   <v>       0.33333333       0.44444444       0.00000000 </v>
   <v>       0.37500000       0.44444444       0.00000000 </v>
   <v>       0.41666667       0.44444444       0.00000000 </v>
   <v>       0.45833333       0.44444444       0.00000000 </v>
   <v>       0.50000000       0.44444444       0.00000000 </v>
   <v>       0.00000000       0.47222222       0.00000000 </v>
   <v>       0.04166667       0.47222222       0.00000000 </v>
   <v>       0.08333333       0.47222222       0.00000000 </v>
   <v>       0.12500000       0.47222222       0.00000000 </v>
   <v>       0.16666667       0.47222222       0.00000000 </v>
   <v>       0.20833333       0.47222222       0.00000000 </v>
   <v>       0.25000000       0.47222222       0.00000000 </v>
   <v>       0.29166667       0.47222222       0.00000000 </v>
   <v>       0.33333333       0.47222222       0.00000000 </v>
   <v>       0.37500000       0.47222222       0.00000000 </v>
   <v>       0.41666667       0.47222222       0.00000000 </v>
   <v>       0.45833333       0.47222222       0.00000000 </v>
   <v>       0.50000000       0.47222222       0.00000000 </v>
   <v>       0.00000000       0.50000000       0.00000000 </v>
   <v>       0.04166667       0.50000000       0.00000000 </v>
   <v>       0.08333333       0.50000000       0.00000000 </v>
   <v>       0.12500000       0.50000000       0.00000000 </v>
   <v>       0.16666667       0.50000000       0.00000000 </v>
   <v>       0.20833333       0.50000000       0.00000000 </v>
   <v>       0.25000000       0.50000000       0.00000000 </v>
   <v>       0.29166667       0.50000000       0.00000000 </v>
   <v>       0.33333333       0.50000000       0.00000000 </v>
   <v>       0.37500000       0.50000000       0.00000000 </v>
   <v>       0.41666667       0.50000000       0.00000000 </v>
   <v>       0.45833333       0.50000000       0.00000000 </v>
   <v>       0.50000000       0.50000000       0.00000000 </v>
  </varray>
  <varray name="weights" >
   <v>       0.00115741 </v>
   <v>       0.00231481 </v>
   <v>       0.00231481 </v>
   <v>       0.00231481 </v>
   <v>       0.00231481 </v>
   <v>       0.00231481 </v>
   <v>       0.00231481 </v>
   <v>       0.00231481 </v>
   <v>       0.00231481 </v>
   <v>       0.00231481 </v>
   <v>       0.00231481 </v>
   <v>       0.00231481 </v>
   <v>       0.00115741 </v>
   <v>       0.00231481 </v>
   <v>       0.00462963 </v>
   <v>       0.00462963 </v>
   <v>       0.00462963 </v>
   <v>       0.00462963 </v>
   <v>       0.00462963 </v>
   <v>       0.00462963 </v>
   <v>       0.00462963 </v>
   <v>       0.00462963 </v>
   <v>       0.00462963 </v>
   <v>       0.00462963 </v>
   <v>       0.00462963 </v>
   <v>       0.00231481 </v>
   <v>       0.00231481 </v>
   <v>       0.00462963 </v>
   <v>       0.00462963 </v>
   <v>       0.00462963 </v>
   <v>       0.00462963 </v>
   <v>       0.00462963 </v>
   <v>       0.00462963 </v>
   <v>       0.00462963 </v>
   <v>       0.00462963 </v>
   <v>       0.00462963 </v>
   <v>       0.00462963 </v>
   <v>       0.00462963 </v>
   <v>       0.00231481 </v>
   <v>       0.00231481 </v>
   <v>       0.00462963 </v>
   <v>       0.00462963 </v>
   <v>       0.00462963 </v>
   <v>       0.00462963 </v>
   <v>       0.00462963 </v>
   <v>       0.00462963 </v>
   <v>       0.00462963 </v>
   <v>       0.00462963 </v>
   <v>       0.00462963 </v>
   <v>       0.00462963 </v>
   <v>       0.00462963 </v>
   <v>       0.00231481 </v>
   <v>       0.00231481 </v>
   <v>       0.00462963 </v>
   <v>       0.00462963 </v>
   <v>       0.00462963 </v>
   <v>       0.00462963 </v>
   <v>       0.00462963 </v>
   <v>       0.00462963 </v>
   <v>       0.00462963 </v>
   <v>       0.00462963 </v>
   <v>       0.00462963 </v>
   <v>       0.00462963 </v>
   <v>       0.00462963 </v>
   <v>       0.00231481 </v>
   <v>       0.00231481 </v>
   <v>       0.00462963 </v>
   <v>       0.00462963 </v>
   <v>       0.00462963 </v>
   <v>       0.00462963 </v>
   <v>       0.00462963 </v>
   <v>       0.00462963 </v>
   <v>       0.00462963 </v>
   <v>       0.00462963 </v>
   <v>       0.00462963 </v>
   <v>       0.00462963 </v>
   <v>       0.00462963 </v>
   <v>       0.00231481 </v>
   <v>       0.00231481 </v>
   <v>       0.00462963 </v>
   <v>       0.00462963 </v>
   <v>       0.00462963 </v>
   <v>       0.00462963 </v>
   <v>       0.00462963 </v>
   <v>       0.00462963 </v>
   <v>       0.00462963 </v>
   <v>       0.00462963 </v>
   <v>       0.00462963 </v>
   <v>       0.00462963 </v>
   <v>       0.00462963 </v>
   <v>       0.00231481 </v>
   <v>       0.00231481 </v>
   <v>       0.00462963 </v>
   <v>       0.00462963 </v>
   <v>       0.00462963 </v>
   <v>       0.00462963 </v>
   <v>       0.00462963 </v>
   <v>       0.00462963 </v>
   <v>       0.00462963 </v>
   <v>       0.00462963 </v>
   <v>       0.00462963 </v>
   <v>       0.00462963 </v>
   <v>       0.00462963 </v>
   <v>       0.00231481 </v>
   <v>       0.00231481 </v>
   <v>       0.00462963 </v>
   <v>       0.00462963 </v>
   <v>       0.00462963 </v>
   <v>       0.00462963 </v>
   <v>       0.00462963 </v>
   <v>       0.00462963 </v>
   <v>       0.00462963 </v>
   <v>       0.00462963 </v>
   <v>       0.00462963 </v>
   <v>       0.00462963 </v>
   <v>       0.00462963 </v>
   <v>       0.00231481 </v>
   <v>       0.00231481 </v>
   <v>       0.00462963 </v>
   <v>       0.00462963 </v>
   <v>       0.00462963 </v>
   <v>       0.00462963 </v>
   <v>       0.00462963 </v>
   <v>       0.00462963 </v>
   <v>       0.00462963 </v>
   <v>       0.00462963 </v>
   <v>       0.00462963 </v>
   <v>       0.00462963 </v>
   <v>       0.00462963 </v>
   <v>       0.00231481 </v>
   <v>       0.00231481 </v>
   <v>       0.00462963 </v>
   <v>       0.00462963 </v>
   <v>       0.00462963 </v>
   <v>       0.00462963 </v>
   <v>       0.00462963 </v>
   <v>       0.00462963 </v>
   <v>       0.00462963 </v>
   <v>       0.00462963 </v>
   <v>       0.00462963 </v>
   <v>       0.00462963 </v>
   <v>       0.00462963 </v>
   <v>       0.00231481 </v>
   <v>       0.00231481 </v>
   <v>       0.00462963 </v>
   <v>       0.00462963 </v>
   <v>       0.00462963 </v>
   <v>       0.00462963 </v>
   <v>       0.00462963 </v>
   <v>       0.00462963 </v>
   <v>       0.00462963 </v>
   <v>       0.00462963 </v>
   <v>       0.00462963 </v>
   <v>       0.00462963 </v>
   <v>       0.00462963 </v>
   <v>       0.00231481 </v>
   <v>       0.00231481 </v>
   <v>       0.00462963 </v>
   <v>       0.00462963 </v>
   <v>       0.00462963 </v>
   <v>       0.00462963 </v>
   <v>       0.00462963 </v>
   <v>       0.00462963 </v>
   <v>       0.00462963 </v>
   <v>       0.00462963 </v>
   <v>       0.00462963 </v>
   <v>       0.00462963 </v>
   <v>       0.00462963 </v>
   <v>       0.00231481 </v>
   <v>       0.00231481 </v>
   <v>       0.00462963 </v>
   <v>       0.00462963 </v>
   <v>       0.00462963 </v>
   <v>       0.00462963 </v>
   <v>       0.00462963 </v>
   <v>       0.00462963 </v>
   <v>       0.00462963 </v>
   <v>       0.00462963 </v>
   <v>       0.00462963 </v>
   <v>       0.00462963 </v>
   <v>       0.00462963 </v>
   <v>       0.00231481 </v>
   <v>       0.00231481 </v>
   <v>       0.00462963 </v>
   <v>       0.00462963 </v>
   <v>       0.00462963 </v>
   <v>       0.00462963 </v>
   <v>       0.00462963 </v>
   <v>       0.00462963 </v>
   <v>       0.00462963 </v>
   <v>       0.00462963 </v>
   <v>       0.00462963 </v>
   <v>       0.00462963 </v>
   <v>       0.00462963 </v>
   <v>       0.00231481 </v>
   <v>       0.00231481 </v>
   <v>       0.00462963 </v>
   <v>       0.00462963 </v>
   <v>       0.00462963 </v>
   <v>       0.00462963 </v>
   <v>       0.00462963 </v>
   <v>       0.00462963 </v>
   <v>       0.00462963 </v>
   <v>       0.00462963 </v>
   <v>       0.00462963 </v>
   <v>       0.00462963 </v>
   <v>       0.00462963 </v>
   <v>       0.00231481 </v>
   <v>       0.00231481 </v>
   <v>       0.00462963 </v>
   <v>       0.00462963 </v>
   <v>       0.00462963 </v>
   <v>       0.00462963 </v>
   <v>       0.00462963 </v>
   <v>       0.00462963 </v>
   <v>       0.00462963 </v>
   <v>       0.00462963 </v>
   <v>       0.00462963 </v>
   <v>       0.00462963 </v>
   <v>       0.00462963 </v>
   <v>       0.00231481 </v>
   <v>       0.00231481 </v>
   <v>       0.00462963 </v>
   <v>       0.00462963 </v>
   <v>       0.00462963 </v>
   <v>       0.00462963 </v>
   <v>       0.00462963 </v>
   <v>       0.00462963 </v>
   <v>       0.00462963 </v>
   <v>       0.00462963 </v>
   <v>       0.00462963 </v>
   <v>       0.00462963 </v>
   <v>       0.00462963 </v>
   <v>       0.00231481 </v>
   <v>       0.00115741 </v>
   <v>       0.00231481 </v>
   <v>       0.00231481 </v>
   <v>       0.00231481 </v>
   <v>       0.00231481 </v>
   <v>       0.00231481 </v>
   <v>       0.00231481 </v>
   <v>       0.00231481 </v>
   <v>       0.00231481 </v>
   <v>       0.00231481 </v>
   <v>       0.00231481 </v>
   <v>       0.00231481 </v>
   <v>       0.00115741 </v>
  </varray>
 </kpoints>
 <parameters>
  <separator name="general" >
   <i type="string" name="SYSTEM">gr</i>
   <i type="logical" name="LCOMPAT"> F  </i>
  </separator>
  <separator name="electronic" >
   <i type="string" name="PREC">accura</i>
   <i name="ENMAX">   2000.00000000</i>
   <i name="ENAUG">    644.87300000</i>
   <i name="EDIFF">      0.00000000</i>
   <i type="int" name="IALGO">    68</i>
   <i type="int" name="IWAVPR">    11</i>
   <i type="int" name="NBANDS">    12</i>
   <i name="NELECT">     16.00000000</i>
   <i type="int" name="TURBO">     0</i>
   <i type="int" name="IRESTART">     0</i>
   <i type="int" name="NREBOOT">     0</i>
   <i type="int" name="NMIN">     0</i>
   <i name="EREF">      0.00000000</i>
   <separator name="electronic smearing" >
    <i type="int" name="ISMEAR">     0</i>
    <i name="SIGMA">      0.05000000</i>
    <i name="KSPACING">      0.50000000</i>
    <i type="logical" name="KGAMMA"> T  </i>
   </separator>
   <separator name="electronic projectors" >
    <i type="logical" name="LREAL"> F  </i>
    <v name="ROPT">      0.00000000</v>
    <i type="int" name="LMAXPAW">  -100</i>
    <i type="int" name="LMAXMIX">     2</i>
    <i type="logical" name="NLSPLINE"> F  </i>
   </separator>
   <separator name="electronic startup" >
    <i type="int" name="ISTART">     0</i>
    <i type="int" name="ICHARG">     2</i>
    <i type="int" name="INIWAV">     1</i>
   </separator>
   <separator name="electronic spin" >
    <i type="int" name="ISPIN">     1</i>
    <i type="logical" name="LNONCOLLINEAR"> F  </i>
    <v name="MAGMOM">      1.00000000      1.00000000      1.00000000      1.00000000</v>
    <i name="NUPDOWN">     -1.00000000</i>
    <i type="logical" name="LSORBIT"> F  </i>
    <v name="SAXIS">      0.00000000      0.00000000      1.00000000</v>
    <i type="logical" name="LSPIRAL"> F  </i>
    <v name="QSPIRAL">      0.00000000      0.00000000      0.00000000</v>
    <i type="logical" name="LZEROZ"> F  </i>
   </separator>
   <separator name="electronic exchange-correlation" >
    <i type="logical" name="LASPH"> F  </i>
    <i type="logical" name="LMETAGGA"> F  </i>
   </separator>
   <separator name="electronic convergence" >
    <i type="int" name="NELM">   100</i>
    <i type="int" name="NELMDL">    -3</i>
    <i type="int" name="NELMIN">     5</i>
    <i name="ENINI">   2000.00000000</i>
    <separator name="electronic convergence detail" >
     <i type="logical" name="LDIAG"> T  </i>
     <i type="logical" name="LSUBROT"> F  </i>
     <i name="WEIMIN">      0.00100000</i>
     <i name="EBREAK">      0.00000000</i>
     <i name="DEPER">      0.30000000</i>
     <i type="int" name="NRMM">     4</i>
     <i name="TIME">      0.40000000</i>
    </separator>
   </separator>
   <separator name="electronic mixer" >
    <i name="AMIX">      0.40000000</i>
    <i name="BMIX">      1.00000000</i>
    <i name="AMIN">      0.10000000</i>
    <i name="AMIX_MAG">      1.60000000</i>
    <i name="BMIX_MAG">      1.00000000</i>
    <separator name="electronic mixer details" >
     <i type="int" name="IMIX">     4</i>
     <i type="int" name="MAXMIX">   -45</i>
     <i name="WC">    100.00000000</i>
     <i type="int" name="INIMIX">     1</i>
     <i type="int" name="MIXPRE">     1</i>
     <i type="int" name="MREMOVE">     5</i>
    </separator>
   </separator>
   <separator name="electronic dipolcorrection" >
    <i type="logical" name="LDIPOL"> F  </i>
    <i type="logical" name="LMONO"> F  </i>
    <i type="int" name="IDIPOL">     0</i>
    <i name="EPSILON">      1.00000000</i>
    <v name="DIPOL">   -100.00000000   -100.00000000   -100.00000000</v>
    <i name="EFIELD">      0.00000000</i>
   </separator>
  </separator>
  <separator name="grids" >
   <i type="int" name="NGX">    64</i>
   <i type="int" name="NGY">    36</i>
   <i type="int" name="NGZ">   294</i>
   <i type="int" name="NGXF">   128</i>
   <i type="int" name="NGYF">    72</i>
   <i type="int" name="NGZF">   588</i>
   <i type="logical" name="ADDGRID"> F  </i>
  </separator>
  <separator name="ionic" >
   <i type="int" name="NSW">   400</i>
   <i type="int" name="IBRION">     1</i>
   <i type="int" name="ISIF">     2</i>
   <i name="PSTRESS">      0.00000000</i>
   <i name="EDIFFG">     -0.00000100</i>
   <i type="int" name="NFREE">     0</i>
   <i name="POTIM">      0.50000000</i>
   <i name="SMASS">     -3.00000000</i>
   <i name="SCALEE">      1.00000000</i>
  </separator>
  <separator name="ionic md" >
   <i name="TEBEG">      0.00010000</i>
   <i name="TEEND">      0.00010000</i>
   <i type="int" name="NBLOCK">     1</i>
   <i type="int" name="KBLOCK">   400</i>
   <i type="int" name="NPACO">   256</i>
   <i name="APACO">     16.00000000</i>
  </separator>
  <separator name="symmetry" >
   <i type="int" name="ISYM">     2</i>
   <i name="SYMPREC">      0.00001000</i>
  </separator>
  <separator name="dos" >
   <i type="logical" name="LORBIT"> F  </i>
   <v name="RWIGS">     -1.00000000</v>
   <i type="int" name="NEDOS">   301</i>
   <i name="EMIN">     10.00000000</i>
   <i name="EMAX">    -10.00000000</i>
   <i name="EFERMI">      0.00000000</i>
  </separator>
  <separator name="writing" >
   <i type="int" name="NWRITE">     2</i>
   <i type="logical" name="LWAVE"> F  </i>
   <i type="logical" name="LCHARG"> F  </i>
   <i type="logical" name="LPARD"> F  </i>
   <i type="logical" name="LVTOT"> F  </i>
   <i type="logical" name="LVHAR"> F  </i>
   <i type="logical" name="LELF"> F  </i>
   <i type="logical" name="LOPTICS"> F  </i>
   <v name="STM">      0.00000000      0.00000000      0.00000000      0.00000000      0.00000000      0.00000000      0.00000000</v>
  </separator>
  <separator name="performance" >
   <i type="int" name="NPAR">     4</i>
   <i type="int" name="NSIM">     4</i>
   <i type="int" name="NBLK">    -1</i>
   <i type="logical" name="LPLANE"> T  </i>
   <i type="logical" name="LSCALAPACK"> F  </i>
   <i type="logical" name="LSCAAWARE"> F  </i>
   <i type="logical" name="LSCALU"> F  </i>
   <i type="logical" name="LASYNC"> F  </i>
   <i type="logical" name="LORBITALREAL"> F  </i>
  </separator>
  <separator name="miscellaneous" >
   <i type="int" name="IDIOT">     3</i>
   <i type="logical" name="LMUSIC"> F  </i>
   <v name="POMASS">     12.01100000</v>
   <v name="DARWINR">      0.00000000</v>
   <v name="DARWINV">      1.00000000</v>
   <i type="logical" name="LCORR"> T  </i>
  </separator>
  <i type="logical" name="GGA_COMPAT"> T  </i>
  <i type="logical" name="LBERRY"> F  </i>
  <i type="int" name="ICORELEVEL">     0</i>
  <i type="logical" name="LDAU"> F  </i>
  <i type="int" name="I_CONSTRAINED_M">     0</i>
  <separator name="electronic exchange-correlation" >
   <i type="string" name="GGA">--</i>
   <i type="int" name="VOSKOWN">     0</i>
   <i type="logical" name="LHFCALC"> F  </i>
   <i type="string" name="PRECFOCK"></i>
   <i type="logical" name="LSYMGRAD"> F  </i>
   <i type="logical" name="LHFONE"> F  </i>
   <i type="logical" name="LRHFCALC"> F  </i>
   <i type="logical" name="LTHOMAS"> F  </i>
   <i type="logical" name="LMODELHF"> F  </i>
   <i name="ENCUT4O">     -1.00000000</i>
   <i type="int" name="EXXOEP">     0</i>
   <i type="int" name="FOURORBIT">     0</i>
   <i name="AEXX">      0.00000000</i>
   <i name="HFALPHA">      0.00000000</i>
   <i name="MCALPHA">      0.00000000</i>
   <i name="ALDAX">      1.00000000</i>
   <i name="AGGAX">      1.00000000</i>
   <i name="ALDAC">      1.00000000</i>
   <i name="AGGAC">      1.00000000</i>
   <i type="int" name="NKREDX">     1</i>
   <i type="int" name="NKREDY">     1</i>
   <i type="int" name="NKREDZ">     1</i>
   <i type="logical" name="SHIFTRED"> F  </i>
   <i type="logical" name="ODDONLY"> F  </i>
   <i type="logical" name="EVENONLY"> F  </i>
   <i type="int" name="LMAXFOCK">     0</i>
   <i type="int" name="NMAXFOCKAE">     0</i>
   <i type="logical" name="LFOCKAEDFT"> F  </i>
   <i name="HFSCREEN">      0.00000000</i>
   <i name="HFSCREENC">      0.00000000</i>
   <i type="int" name="NBANDSGWLOW">     0</i>
  </separator>
  <separator name="vdW DFT" >
   <i type="logical" name="LUSE_VDW"> F  </i>
   <i name="Zab_VDW">     -0.84910000</i>
   <i name="PARAM1">      0.12340000</i>
   <i name="PARAM2">      1.00000000</i>
   <i name="PARAM3">      0.00000000</i>
  </separator>
  <separator name="model GW" >
   <i type="int" name="MODEL_GW">     0</i>
   <i name="MODEL_EPS0">     31.62568521</i>
   <i name="MODEL_ALPHA">      1.00000000</i>
  </separator>
  <separator name="linear response parameters" >
   <i type="logical" name="LEPSILON"> F  </i>
   <i type="logical" name="LRPA"> F  </i>
   <i type="logical" name="LNABLA"> F  </i>
   <i type="logical" name="LVEL"> F  </i>
   <i type="int" name="KINTER">     0</i>
   <i name="CSHIFT">      0.10000000</i>
   <i name="OMEGAMAX">     -1.00000000</i>
   <i name="DEG_THRESHOLD">      0.00200000</i>
  </separator>
  <separator name="orbital magnetization" >
   <i type="logical" name="NUCIND"> F  </i>
   <v name="MAGPOS">      0.00000000      0.00000000      0.00000000</v>
   <i type="logical" name="LNICSALL"> T  </i>
   <i type="logical" name="ORBITALMAG"> F  </i>
   <i type="logical" name="LMAGBLOCH"> F  </i>
   <i type="logical" name="LCHIMAG"> F  </i>
   <i type="logical" name="LGAUGE"> T  </i>
   <i type="int" name="MAGATOM">     0</i>
   <v name="MAGDIPOL">      0.00000000      0.00000000      0.00000000</v>
   <v name="AVECCONST">      0.00000000      0.00000000      0.00000000</v>
  </separator>
  <separator name="response functions" >
   <i type="logical" name="LADDER"> F  </i>
   <i type="logical" name="LFXC"> F  </i>
   <i type="logical" name="LHARTREE"> T  </i>
   <i type="int" name="IBSE">     0</i>
   <i type="logical" name="LTCTE"> F  </i>
   <i type="logical" name="LTETE"> F  </i>
   <i type="logical" name="LTRIPLET"> F  </i>
   <i type="logical" name="LFXCEPS"> F  </i>
   <i type="logical" name="LFXHEG"> F  </i>
   <i type="logical" name="L2ORDER"> F  </i>
   <i type="logical" name="LUSEW"> F  </i>
   <i name="ENCUTGW">     -2.00000000</i>
   <i name="ENCUTGWSOFT">     -2.00000000</i>
   <i name="ENCUTLF">     -1.00000000</i>
   <i type="int" name="LMAXMP2">    -1</i>
   <i name="SCISSOR">      0.00000000</i>
   <i type="int" name="NOMEGA">     0</i>
   <i type="int" name="NOMEGAR">     0</i>
   <i type="int" name="NBANDSGW">    -1</i>
   <i type="int" name="NBANDSO">    -1</i>
   <i type="int" name="NBANDSV">    -1</i>
   <i type="int" name="NELM">   100</i>
   <i type="int" name="DIM">     3</i>
   <i type="int" name="ANTIRES">     0</i>
   <i name="OMEGAMAX">    -30.00000000</i>
   <i name="OMEGAMIN">    -30.00000000</i>
   <i name="OMEGATL">   -200.00000000</i>
   <i type="int" name="OMEGAGRID">     0</i>
   <i name="CSHIFT">     -0.10000000</i>
   <i type="logical" name="SELFENERGY"> F  </i>
   <i type="logical" name="LSPECTRAL"> F  </i>
   <i type="logical" name="ODDONLYGW"> F  </i>
   <i type="logical" name="EVENONLYGW"> F  </i>
   <i type="int" name="NKREDLFX">     1</i>
   <i type="int" name="NKREDLFY">     1</i>
   <i type="int" name="NKREDLFZ">     1</i>
   <i type="int" name="MAXMEM">  1800</i>
   <i type="int" name="TELESCOPE">     0</i>
   <i type="int" name="TAUPAR">     1</i>
  </separator>
  <separator name="External order field" >
   <i name="OFIELD_KAPPA">      0.00000000</i>
   <v name="OFIELD_K">      0.00000000      0.00000000      0.00000000</v>
   <i name="OFIELD_Q6_NEAR">      0.00000000</i>
   <i name="OFIELD_Q6_FAR">      0.00000000</i>
   <i name="OFIELD_A">      0.00000000</i>
  </separator>
 </parameters>
 <atominfo>
  <atoms>       4 </atoms>
  <types>       1 </types>
  <array name="atoms" >
   <dimension dim="1">ion</dimension>
   <field type="string">element</field>
   <field type="int">atomtype</field>
   <set>
    <rc><c>C </c><c>   1</c></rc>
    <rc><c>C </c><c>   1</c></rc>
    <rc><c>C </c><c>   1</c></rc>
    <rc><c>C </c><c>   1</c></rc>
   </set>
  </array>
  <array name="atomtypes" >
   <dimension dim="1">type</dimension>
   <field type="int">atomspertype</field>
   <field type="string">element</field>
   <field>mass</field>
   <field>valence</field>
   <field type="string">pseudopotential</field>
   <set>
    <rc><c>   4</c><c>C </c><c>     12.01100000</c><c>      4.00000000</c><c> PAW_PBE C 08Apr2002                    </c></rc>
   </set>
  </array>
 </atominfo>
 <structure name="initialpos" >
  <crystal>
   <varray name="basis" >
    <v>       4.26579528       0.00000000       0.00000000 </v>
    <v>       0.00000000       2.49148001       0.00000000 </v>
    <v>       0.00000000       0.00000000      19.83769773 </v>
   </varray>
   <i name="volume">    210.83790140 </i>
   <varray name="rec_basis" >
    <v>       0.23442288       0.00000000       0.00000000 </v>
    <v>       0.00000000       0.40136786       0.00000000 </v>
    <v>       0.00000000       0.00000000       0.05040908 </v>
   </varray>
  </crystal>
  <varray name="positions" >
   <v>       0.00026297       0.00000000       0.00000000 </v>
   <v>       0.16640370       0.50000000       0.00000000 </v>
   <v>       0.50026297       0.50000000       0.00000000 </v>
   <v>       0.66640370       0.00000000       0.00000000 </v>
  </varray>
 </structure>
 <calculation>
  <scstep>
   <time name="dav">  295.93  299.56</time>
   <time name="total">  298.45  302.18</time>
   <energy>
    <i name="alphaZ">      6.18334092 </i>
    <i name="ewald">   2532.04229055 </i>
    <i name="hartreedc">  -2959.06260762 </i>
    <i name="XCdc">     54.98676588 </i>
    <i name="pawpsdc">    151.32577238 </i>
    <i name="pawaedc">   -155.92769107 </i>
    <i name="eentropy">     -0.00097113 </i>
    <i name="bandstr">    -29.96431011 </i>
    <i name="atom">    588.62352690 </i>
    <i name="e_fr_energy">    188.20611670 </i>
    <i name="e_wo_entrp">    188.20708783 </i>
    <i name="e_0_energy">    188.20660227 </i>
   </energy>
  </scstep>
  <scstep>
   <time name="dav">  446.96  447.51</time>
   <time name="total">  446.97  447.52</time>
   <energy>
    <i name="e_fr_energy">     -9.13027079 </i>
    <i name="e_wo_entrp">     -9.12965709 </i>
    <i name="e_0_energy">     -9.12996394 </i>
   </energy>
  </scstep>
  <scstep>
   <time name="dav">  343.76  344.01</time>
   <time name="total">  374.27  374.97</time>
   <energy>
    <i name="e_fr_energy">    -38.28036591 </i>
    <i name="e_wo_entrp">    -38.28035024 </i>
    <i name="e_0_energy">    -38.28035807 </i>
   </energy>
  </scstep>
  <scstep>
   <time name="diag">   79.87   79.95</time>
   <time name="diis">  344.06  344.36</time>
   <time name="orth">    3.08    3.08</time>
   <time name="total">  459.48  461.22</time>
   <energy>
    <i name="e_fr_energy">    -37.65531818 </i>
    <i name="e_wo_entrp">    -37.65531718 </i>
    <i name="e_0_energy">    -37.65531768 </i>
   </energy>
  </scstep>
  <scstep>
   <time name="diag">   79.42   79.81</time>
   <time name="diis">  339.77  340.81</time>
   <time name="orth">    3.07    3.09</time>
   <time name="total">  454.95  456.61</time>
   <energy>
    <i name="e_fr_energy">    -36.91022993 </i>
    <i name="e_wo_entrp">    -36.91022961 </i>
    <i name="e_0_energy">    -36.91022977 </i>
   </energy>
  </scstep>
  <scstep>
   <time name="diag">   79.29   79.84</time>
   <time name="diis">  375.58  377.30</time>
   <time name="orth">    3.09    3.10</time>
   <time name="total">  490.79  493.12</time>
   <energy>
    <i name="e_fr_energy">    -36.91175731 </i>
    <i name="e_wo_entrp">    -36.91175700 </i>
    <i name="e_0_energy">    -36.91175715 </i>
   </energy>
  </scstep>
  <scstep>
   <time name="diag">   79.32   79.88</time>
   <time name="diis">  338.98  341.18</time>
   <time name="orth">    3.08    3.10</time>
   <time name="total">  453.89  457.50</time>
   <energy>
    <i name="e_fr_energy">    -36.90265083 </i>
    <i name="e_wo_entrp">    -36.90265048 </i>
    <i name="e_0_energy">    -36.90265065 </i>
   </energy>
  </scstep>
  <scstep>
   <time name="diag">   79.15   79.80</time>
   <time name="diis">  339.70  341.77</time>
   <time name="orth">    3.07    3.09</time>
   <time name="total">  454.18  457.17</time>
   <energy>
    <i name="e_fr_energy">    -36.89710613 </i>
    <i name="e_wo_entrp">    -36.89710579 </i>
    <i name="e_0_energy">    -36.89710596 </i>
   </energy>
  </scstep>
  <scstep>
   <time name="diag">   79.43   79.68</time>
   <time name="diis">  321.73  324.90</time>
   <time name="orth">    3.10    3.15</time>
   <time name="total">  436.77  440.57</time>
   <energy>
    <i name="e_fr_energy">    -36.89683291 </i>
    <i name="e_wo_entrp">    -36.89683260 </i>
    <i name="e_0_energy">    -36.89683276 </i>
   </energy>
  </scstep>
  <scstep>
   <time name="diag">   79.00   79.70</time>
   <time name="diis">  322.36  325.48</time>
   <time name="orth">    3.08    3.09</time>
   <time name="total">  436.86  440.86</time>
   <energy>
    <i name="e_fr_energy">    -36.89667340 </i>
    <i name="e_wo_entrp">    -36.89667307 </i>
    <i name="e_0_energy">    -36.89667324 </i>
   </energy>
  </scstep>
  <scstep>
   <time name="diag">   78.90   79.68</time>
   <time name="diis">  325.56  327.65</time>
   <time name="orth">    3.08    3.08</time>
   <time name="total">  440.01  443.22</time>
   <energy>
    <i name="e_fr_energy">    -36.89926500 </i>
    <i name="e_wo_entrp">    -36.89914836 </i>
    <i name="e_0_energy">    -36.89920668 </i>
   </energy>
  </scstep>
  <scstep>
   <time name="diag">   79.68   79.70</time>
   <time name="diis">  326.38  326.45</time>
   <time name="orth">    3.09    3.09</time>
   <time name="total">  441.20  441.31</time>
   <energy>
    <i name="e_fr_energy">    -36.90143683 </i>
    <i name="e_wo_entrp">    -36.90140525 </i>
    <i name="e_0_energy">    -36.90142104 </i>
   </energy>
  </scstep>
  <scstep>
   <time name="diag">   79.78   79.80</time>
   <time name="diis">  335.95  336.86</time>
   <time name="orth">    3.07    3.08</time>
   <time name="total">  451.59  452.69</time>
   <energy>
    <i name="e_fr_energy">    -36.91360167 </i>
    <i name="e_wo_entrp">    -36.91357007 </i>
    <i name="e_0_energy">    -36.91358587 </i>
   </energy>
  </scstep>
  <scstep>
   <time name="diag">   79.38   79.77</time>
   <time name="diis">  327.60  329.43</time>
   <time name="orth">    3.07    3.07</time>
   <time name="total">  442.54  445.09</time>
   <energy>
    <i name="e_fr_energy">    -36.91468611 </i>
    <i name="e_wo_entrp">    -36.91465456 </i>
    <i name="e_0_energy">    -36.91467034 </i>
   </energy>
  </scstep>
  <scstep>
   <time name="diag">   78.97   79.77</time>
   <time name="diis">  322.69  325.42</time>
   <time name="orth">    3.07    3.07</time>
   <time name="total">  437.31  441.08</time>
   <energy>
    <i name="e_fr_energy">    -36.91476443 </i>
    <i name="e_wo_entrp">    -36.91473311 </i>
    <i name="e_0_energy">    -36.91474877 </i>
   </energy>
  </scstep>
  <scstep>
   <time name="diag">   79.54   79.76</time>
   <time name="diis">  325.01  328.07</time>
   <time name="orth">    3.08    3.08</time>
   <time name="total">  440.14  443.64</time>
   <energy>
    <i name="e_fr_energy">    -36.91488752 </i>
    <i name="e_wo_entrp">    -36.91485701 </i>
    <i name="e_0_energy">    -36.91487227 </i>
   </energy>
  </scstep>
  <scstep>
   <time name="diag">   79.18   79.72</time>
   <time name="diis">  325.77  328.38</time>
   <time name="orth">    3.09    3.10</time>
   <time name="total">  440.48  444.02</time>
   <energy>
    <i name="e_fr_energy">    -36.91488887 </i>
    <i name="e_wo_entrp">    -36.91485769 </i>
    <i name="e_0_energy">    -36.91487328 </i>
   </energy>
  </scstep>
  <scstep>
   <time name="diag">   79.41   79.78</time>
   <time name="diis">  324.65  326.24</time>
   <time name="orth">    3.07    3.07</time>
   <time name="total">  439.54  441.73</time>
   <energy>
    <i name="e_fr_energy">    -36.91491280 </i>
    <i name="e_wo_entrp">    -36.91488098 </i>
    <i name="e_0_energy">    -36.91489689 </i>
   </energy>
  </scstep>
  <scstep>
   <time name="diag">   79.44   79.84</time>
   <time name="diis">  328.86  329.06</time>
   <time name="orth">    3.07    3.07</time>
   <time name="total">  444.13  444.77</time>
   <energy>
    <i name="e_fr_energy">    -36.91491414 </i>
    <i name="e_wo_entrp">    -36.91488284 </i>
    <i name="e_0_energy">    -36.91489849 </i>
   </energy>
  </scstep>
  <scstep>
   <time name="diag">   79.76   79.91</time>
   <time name="diis">  326.31  327.02</time>
   <time name="orth">    3.09    3.09</time>
   <time name="total">  441.87  442.78</time>
   <energy>
    <i name="e_fr_energy">    -36.91491727 </i>
    <i name="e_wo_entrp">    -36.91488603 </i>
    <i name="e_0_energy">    -36.91490165 </i>
   </energy>
  </scstep>
  <scstep>
   <time name="diag">   79.78   79.79</time>
   <time name="diis">  330.08  330.15</time>
   <time name="orth">    3.11    3.11</time>
   <time name="total">  445.92  446.03</time>
   <energy>
    <i name="e_fr_energy">    -36.91492080 </i>
    <i name="e_wo_entrp">    -36.91488946 </i>
    <i name="e_0_energy">    -36.91490513 </i>
   </energy>
  </scstep>
  <scstep>
   <time name="diag">   79.46   79.75</time>
   <time name="diis">  327.68  328.54</time>
   <time name="orth">    3.10    3.10</time>
   <time name="total">  443.16  444.38</time>
   <energy>
    <i name="e_fr_energy">    -36.91492208 </i>
    <i name="e_wo_entrp">    -36.91489086 </i>
    <i name="e_0_energy">    -36.91490647 </i>
   </energy>
  </scstep>
  <scstep>
   <time name="diag">   79.34   79.74</time>
   <time name="diis">  341.36  344.01</time>
   <time name="orth">    3.08    3.10</time>
   <time name="total">  456.55  459.86</time>
   <energy>
    <i name="e_fr_energy">    -36.91492241 </i>
    <i name="e_wo_entrp">    -36.91489119 </i>
    <i name="e_0_energy">    -36.91490680 </i>
   </energy>
  </scstep>
  <scstep>
   <time name="diag">   79.61   79.79</time>
   <time name="diis">  328.22  329.87</time>
   <time name="orth">    3.07    3.09</time>
   <time name="total">  443.23  445.41</time>
   <energy>
    <i name="e_fr_energy">    -36.91492251 </i>
    <i name="e_wo_entrp">    -36.91489128 </i>
    <i name="e_0_energy">    -36.91490690 </i>
   </energy>
  </scstep>
  <scstep>
   <time name="diag">   79.50   79.67</time>
   <time name="diis">  325.73  326.63</time>
   <time name="orth">    3.07    3.07</time>
   <time name="total">  440.82  442.00</time>
   <energy>
    <i name="e_fr_energy">    -36.91492251 </i>
    <i name="e_wo_entrp">    -36.91489129 </i>
    <i name="e_0_energy">    -36.91490690 </i>
   </energy>
  </scstep>
  <scstep>
   <time name="diag">   79.57   79.69</time>
   <time name="diis">  247.84  248.63</time>
   <time name="orth">    3.07    3.07</time>
   <time name="total">  362.74  363.88</time>
   <energy>
    <i name="e_fr_energy">    -36.91492252 </i>
    <i name="e_wo_entrp">    -36.91489130 </i>
    <i name="e_0_energy">    -36.91490691 </i>
   </energy>
  </scstep>
  <scstep>
   <time name="diag">   79.20   79.73</time>
   <time name="diis">  257.54  258.96</time>
   <time name="orth">    3.08    3.10</time>
   <time name="total">  372.48  374.66</time>
   <energy>
    <i name="e_fr_energy">    -36.91492251 </i>
    <i name="e_wo_entrp">    -36.91489129 </i>
    <i name="e_0_energy">    -36.91490690 </i>
   </energy>
  </scstep>
  <scstep>
   <time name="diag">   79.57   79.67</time>
   <time name="diis">  219.60  219.80</time>
   <time name="orth">    3.07    3.08</time>
   <time name="total">  334.40  334.75</time>
   <energy>
    <i name="e_fr_energy">    -36.91492251 </i>
    <i name="e_wo_entrp">    -36.91489129 </i>
    <i name="e_0_energy">    -36.91490690 </i>
   </energy>
  </scstep>
  <scstep>
   <time name="diag">   79.77   79.83</time>
   <time name="diis">  209.33  209.56</time>
   <time name="orth">    3.07    3.07</time>
   <time name="total">  324.71  325.04</time>
   <energy>
    <i name="e_fr_energy">    -36.91492251 </i>
    <i name="e_wo_entrp">    -36.91489129 </i>
    <i name="e_0_energy">    -36.91490690 </i>
   </energy>
  </scstep>
  <scstep>
   <time name="diag">   79.58   79.87</time>
   <time name="diis">  200.45  200.49</time>
   <time name="orth">    3.08    3.08</time>
   <time name="total">  285.48  285.85</time>
   <energy>
    <i name="alphaZ">      6.18334092 </i>
    <i name="ewald">   2532.04229055 </i>
    <i name="hartreedc">  -3026.12384457 </i>
    <i name="XCdc">     57.37209373 </i>
    <i name="pawpsdc">    273.78225120 </i>
    <i name="pawaedc">   -278.91612515 </i>
    <i name="eentropy">     -0.00003122 </i>
    <i name="bandstr">   -189.87842487 </i>
    <i name="atom">    588.62352690 </i>
    <i name="e_fr_energy">    -36.91492251 </i>
    <i name="e_wo_entrp">    -36.91489129 </i>
    <i name="e_0_energy">    -36.91490690 </i>
   </energy>
  </scstep>
  <structure>
   <crystal>
    <varray name="basis" >
     <v>       4.26579528       0.00000000       0.00000000 </v>
     <v>       0.00000000       2.49148001       0.00000000 </v>
     <v>       0.00000000       0.00000000      19.83769773 </v>
    </varray>
    <i name="volume">    210.83790140 </i>
    <varray name="rec_basis" >
     <v>       0.23442288       0.00000000       0.00000000 </v>
     <v>       0.00000000       0.40136786       0.00000000 </v>
     <v>       0.00000000       0.00000000       0.05040908 </v>
    </varray>
   </crystal>
   <varray name="positions" >
    <v>       0.00026297       0.00000000       0.00000000 </v>
    <v>       0.16640370       0.50000000       0.00000000 </v>
    <v>       0.50026297       0.50000000       0.00000000 </v>
    <v>       0.66640370       0.00000000       0.00000000 </v>
   </varray>
  </structure>
  <varray name="forces" >
   <v>      -0.00301338      -0.00000000       0.00000000 </v>
   <v>       0.00301338       0.00000000       0.00000000 </v>
   <v>      -0.00301338       0.00000000       0.00000000 </v>
   <v>       0.00301338      -0.00000000       0.00000000 </v>
  </varray>
  <varray name="stress" >
   <v>      -0.01878995       0.00000000       0.00000000 </v>
   <v>       0.00000000     -16.37691748       0.00000000 </v>
   <v>       0.00000000       0.00000000      -0.01007557 </v>
  </varray>
  <energy>
   <i name="e_fr_energy">    -36.91492251 </i>
   <i name="e_wo_entrp">    -36.91490690 </i>
   <i name="e_0_energy">     -0.00003122 </i>
  </energy>
  <time name="totalsc">12736.6312796.23</time>
 </calculation>
 <calculation>
  <scstep>
   <time name="dav">  313.33  313.67</time>
   <time name="total">  345.15  345.61</time>
   <energy>
    <i name="alphaZ">      6.18334092 </i>
    <i name="ewald">   2532.04353813 </i>
    <i name="hartreedc">  -3026.12437988 </i>
    <i name="XCdc">     57.37212902 </i>
    <i name="pawpsdc">    273.78225101 </i>
    <i name="pawaedc">   -278.91612497 </i>
    <i name="eentropy">     -0.00002820 </i>
    <i name="bandstr">   -189.87917273 </i>
    <i name="atom">    588.62352690 </i>
    <i name="e_fr_energy">    -36.91491979 </i>
    <i name="e_wo_entrp">    -36.91489159 </i>
    <i name="e_0_energy">    -36.91490569 </i>
   </energy>
  </scstep>
  <scstep>
   <time name="diag">   79.45   79.85</time>
   <time name="diis">  321.97  322.54</time>
   <time name="orth">    3.07    3.07</time>
   <time name="total">  437.23  438.23</time>
   <energy>
    <i name="e_fr_energy">    -36.91491994 </i>
    <i name="e_wo_entrp">    -36.91489164 </i>
    <i name="e_0_energy">    -36.91490579 </i>
   </energy>
  </scstep>
  <scstep>
   <time name="diag">   79.71   79.73</time>
   <time name="diis">  328.35  328.48</time>
   <time name="orth">    3.07    3.07</time>
   <time name="total">  443.83  444.28</time>
   <energy>
    <i name="e_fr_energy">    -36.91491984 </i>
    <i name="e_wo_entrp">    -36.91489137 </i>
    <i name="e_0_energy">    -36.91490561 </i>
   </energy>
  </scstep>
  <scstep>
   <time name="diag">   79.60   79.76</time>
   <time name="diis">  334.84  335.45</time>
   <time name="orth">    3.09    3.10</time>
   <time name="total">  450.45  451.27</time>
   <energy>
    <i name="e_fr_energy">    -36.91491983 </i>
    <i name="e_wo_entrp">    -36.91489140 </i>
    <i name="e_0_energy">    -36.91490561 </i>
   </energy>
  </scstep>
  <scstep>
   <time name="diag">   79.74   79.77</time>
   <time name="diis">  333.39  335.84</time>
   <time name="orth">    3.06    3.08</time>
   <time name="total">  448.70  451.55</time>
   <energy>
    <i name="e_fr_energy">    -36.91491983 </i>
    <i name="e_wo_entrp">    -36.91489140 </i>
    <i name="e_0_energy">    -36.91490562 </i>
   </energy>
  </scstep>
  <scstep>
   <time name="diag">   78.91   79.74</time>
   <time name="diis">  286.71  288.72</time>
   <time name="orth">    3.07    3.08</time>
   <time name="total">  401.19  404.38</time>
   <energy>
    <i name="e_fr_energy">    -36.91491983 </i>
    <i name="e_wo_entrp">    -36.91489140 </i>
    <i name="e_0_energy">    -36.91490561 </i>
   </energy>
  </scstep>
  <scstep>
   <time name="diag">   79.00   79.62</time>
   <time name="diis">  219.42  220.91</time>
   <time name="orth">    3.06    3.10</time>
   <time name="total">  334.00  336.47</time>
   <energy>
    <i name="e_fr_energy">    -36.91491983 </i>
    <i name="e_wo_entrp">    -36.91489140 </i>
    <i name="e_0_energy">    -36.91490561 </i>
   </energy>
  </scstep>
  <scstep>
   <time name="diag">   78.85   79.60</time>
   <time name="diis">  206.92  207.87</time>
   <time name="orth">    3.07    3.09</time>
   <time name="total">  321.29  323.48</time>
   <energy>
    <i name="e_fr_energy">    -36.91491983 </i>
    <i name="e_wo_entrp">    -36.91489140 </i>
    <i name="e_0_energy">    -36.91490561 </i>
   </energy>
  </scstep>
  <scstep>
   <time name="diag">   79.11   79.60</time>
   <time name="diis">  197.46  199.14</time>
   <time name="orth">    3.08    3.09</time>
   <time name="total">  282.01  284.24</time>
   <energy>
    <i name="alphaZ">      6.18334092 </i>
    <i name="ewald">   2532.04353813 </i>
    <i name="hartreedc">  -3026.12489202 </i>
    <i name="XCdc">     57.37215035 </i>
    <i name="pawpsdc">    273.78442822 </i>
    <i name="pawaedc">   -278.91831174 </i>
    <i name="eentropy">     -0.00002843 </i>
    <i name="bandstr">   -189.87867216 </i>
    <i name="atom">    588.62352690 </i>
    <i name="e_fr_energy">    -36.91491983 </i>
    <i name="e_wo_entrp">    -36.91489140 </i>
    <i name="e_0_energy">    -36.91490561 </i>
   </energy>
  </scstep>
  <structure>
   <crystal>
    <varray name="basis" >
     <v>       4.26579528       0.00000000       0.00000000 </v>
     <v>       0.00000000       2.49148001       0.00000000 </v>
     <v>       0.00000000       0.00000000      19.83769773 </v>
    </varray>
    <i name="volume">    210.83790140 </i>
    <varray name="rec_basis" >
     <v>       0.23442288       0.00000000       0.00000000 </v>
     <v>       0.00000000       0.40136786       0.00000000 </v>
     <v>       0.00000000       0.00000000       0.05040908 </v>
    </varray>
   </crystal>
   <varray name="positions" >
    <v>       0.00022889      -0.00000000       0.00000000 </v>
    <v>       0.16643778       0.50000000       0.00000000 </v>
    <v>       0.50022889       0.50000000       0.00000000 </v>
    <v>       0.66643778      -0.00000000       0.00000000 </v>
   </varray>
  </structure>
  <varray name="forces" >
   <v>       0.01229938       0.00000000      -0.00000000 </v>
   <v>      -0.01229938       0.00000000       0.00000000 </v>
   <v>       0.01229938       0.00000000      -0.00000000 </v>
   <v>      -0.01229938      -0.00000000       0.00000000 </v>
  </varray>
  <varray name="stress" >
   <v>       0.03470685       0.00000000       0.00000000 </v>
   <v>       0.00000000     -16.42063392       0.00000000 </v>
   <v>       0.00000000       0.00000000      -0.01009125 </v>
  </varray>
  <energy>
   <i name="e_fr_energy">    -36.91491983 </i>
   <i name="e_wo_entrp">    -36.91490561 </i>
   <i name="e_0_energy">     -0.00002843 </i>
  </energy>
  <time name="totalsc"> 3566.02 3582.37</time>
 </calculation>
 <calculation>
  <scstep>
   <time name="dav">  306.95  308.55</time>
   <time name="total">  339.63  341.31</time>
   <energy>
    <i name="alphaZ">      6.18334092 </i>
    <i name="ewald">   2532.04253371 </i>
    <i name="hartreedc">  -3026.12447338 </i>
    <i name="XCdc">     57.37212190 </i>
    <i name="pawpsdc">    273.78442677 </i>
    <i name="pawaedc">   -278.91831026 </i>
    <i name="eentropy">     -0.00003085 </i>
    <i name="bandstr">   -189.87805841 </i>
    <i name="atom">    588.62352690 </i>
    <i name="e_fr_energy">    -36.91492270 </i>
    <i name="e_wo_entrp">    -36.91489185 </i>
    <i name="e_0_energy">    -36.91490727 </i>
   </energy>
  </scstep>
  <scstep>
   <time name="diag">   79.50   79.67</time>
   <time name="diis">  321.68  324.18</time>
   <time name="orth">    3.06    3.07</time>
   <time name="total">  436.96  439.72</time>
   <energy>
    <i name="e_fr_energy">    -36.91492278 </i>
    <i name="e_wo_entrp">    -36.91489201 </i>
    <i name="e_0_energy">    -36.91490739 </i>
   </energy>
  </scstep>
  <scstep>
   <time name="diag">   79.38   79.76</time>
   <time name="diis">  324.26  324.67</time>
   <time name="orth">    3.07    3.08</time>
   <time name="total">  438.77  439.58</time>
   <energy>
    <i name="e_fr_energy">    -36.91492270 </i>
    <i name="e_wo_entrp">    -36.91489207 </i>
    <i name="e_0_energy">    -36.91490738 </i>
   </energy>
  </scstep>
  <scstep>
   <time name="diag">   79.77   79.79</time>
   <time name="diis">  332.01  332.41</time>
   <time name="orth">    3.09    3.09</time>
   <time name="total">  447.22  447.66</time>
   <energy>
    <i name="e_fr_energy">    -36.91492269 </i>
    <i name="e_wo_entrp">    -36.91489203 </i>
    <i name="e_0_energy">    -36.91490736 </i>
   </energy>
  </scstep>
  <scstep>
   <time name="diag">   79.71   79.72</time>
   <time name="diis">  331.25  331.32</time>
   <time name="orth">    3.07    3.07</time>
   <time name="total">  446.85  446.95</time>
   <energy>
    <i name="e_fr_energy">    -36.91492269 </i>
    <i name="e_wo_entrp">    -36.91489203 </i>
    <i name="e_0_energy">    -36.91490736 </i>
   </energy>
  </scstep>
  <scstep>
   <time name="diag">   79.48   79.74</time>
   <time name="diis">  250.22  250.27</time>
   <time name="orth">    3.07    3.07</time>
   <time name="total">  335.10  335.57</time>
   <energy>
    <i name="alphaZ">      6.18334092 </i>
    <i name="ewald">   2532.04253371 </i>
    <i name="hartreedc">  -3026.12407733 </i>
    <i name="XCdc">     57.37210502 </i>
    <i name="pawpsdc">    273.78265573 </i>
    <i name="pawaedc">   -278.91653166 </i>
    <i name="eentropy">     -0.00003066 </i>
    <i name="bandstr">   -189.87844532 </i>
    <i name="atom">    588.62352690 </i>
    <i name="e_fr_energy">    -36.91492269 </i>
    <i name="e_wo_entrp">    -36.91489203 </i>
    <i name="e_0_energy">    -36.91490736 </i>
   </energy>
  </scstep>
  <structure>
   <crystal>
    <varray name="basis" >
     <v>       4.26579528       0.00000000       0.00000000 </v>
     <v>       0.00000000       2.49148001       0.00000000 </v>
     <v>       0.00000000       0.00000000      19.83769773 </v>
    </varray>
    <i name="volume">    210.83790140 </i>
    <varray name="rec_basis" >
     <v>       0.23442288       0.00000000       0.00000000 </v>
     <v>       0.00000000       0.40136786       0.00000000 </v>
     <v>       0.00000000       0.00000000       0.05040908 </v>
    </varray>
   </crystal>
   <varray name="positions" >
    <v>       0.00025626      -0.00000000      -0.00000000 </v>
    <v>       0.16641041       0.50000000       0.00000000 </v>
    <v>       0.50025626       0.50000000      -0.00000000 </v>
    <v>       0.66641041      -0.00000000       0.00000000 </v>
   </varray>
  </structure>
  <varray name="forces" >
   <v>       0.00000478      -0.00000000       0.00000000 </v>
   <v>      -0.00000478       0.00000000       0.00000000 </v>
   <v>       0.00000478       0.00000000       0.00000000 </v>
   <v>      -0.00000478      -0.00000000       0.00000000 </v>
  </varray>
  <varray name="stress" >
   <v>      -0.00817567       0.00000000       0.00000000 </v>
   <v>       0.00000000     -16.38562486       0.00000000 </v>
   <v>       0.00000000       0.00000000      -0.01015903 </v>
  </varray>
  <energy>
   <i name="e_fr_energy">    -36.91492269 </i>
   <i name="e_wo_entrp">    -36.91490736 </i>
   <i name="e_0_energy">     -0.00003066 </i>
  </energy>
  <time name="totalsc"> 2546.94 2553.48</time>
 </calculation>
 <calculation>
  <scstep>
   <time name="dav">  246.32  246.43</time>
   <time name="total">  279.07  279.20</time>
   <energy>
    <i name="alphaZ">      6.18334092 </i>
    <i name="ewald">   2532.04253332 </i>
    <i name="hartreedc">  -3026.12406652 </i>
    <i name="XCdc">     57.37210472 </i>
    <i name="pawpsdc">    273.78266001 </i>
    <i name="pawaedc">   -278.91653582 </i>
    <i name="eentropy">     -0.00003066 </i>
    <i name="bandstr">   -189.87845556 </i>
    <i name="atom">    588.62352690 </i>
    <i name="e_fr_energy">    -36.91492269 </i>
    <i name="e_wo_entrp">    -36.91489203 </i>
    <i name="e_0_energy">    -36.91490736 </i>
   </energy>
  </scstep>
  <scstep>
   <time name="diag">   79.52   79.73</time>
   <time name="diis">  180.12  180.70</time>
   <time name="orth">    3.07    3.09</time>
   <time name="total">  295.35  296.32</time>
   <energy>
    <i name="e_fr_energy">    -36.91492269 </i>
    <i name="e_wo_entrp">    -36.91489203 </i>
    <i name="e_0_energy">    -36.91490736 </i>
   </energy>
  </scstep>
  <scstep>
   <time name="diag">   79.37   79.75</time>
   <time name="diis">  181.27  181.89</time>
   <time name="orth">    3.08    3.08</time>
   <time name="total">  296.52  297.58</time>
   <energy>
    <i name="e_fr_energy">    -36.91492269 </i>
    <i name="e_wo_entrp">    -36.91489203 </i>
    <i name="e_0_energy">    -36.91490736 </i>
   </energy>
  </scstep>
  <scstep>
   <time name="diag">   79.70   79.73</time>
   <time name="diis">  173.22  173.27</time>
   <time name="orth">    3.08    3.08</time>
   <time name="total">  288.82  288.92</time>
   <energy>
    <i name="e_fr_energy">    -36.91492269 </i>
    <i name="e_wo_entrp">    -36.91489203 </i>
    <i name="e_0_energy">    -36.91490736 </i>
   </energy>
  </scstep>
  <scstep>
   <time name="diag">   79.61   79.62</time>
   <time name="diis">  170.11  170.14</time>
   <time name="orth">    3.08    3.08</time>
   <time name="total">  284.97  285.15</time>
   <energy>
    <i name="e_fr_energy">    -36.91492269 </i>
    <i name="e_wo_entrp">    -36.91489203 </i>
    <i name="e_0_energy">    -36.91490736 </i>
   </energy>
  </scstep>
  <scstep>
   <time name="diag">   79.41   79.60</time>
   <time name="diis">  167.05  167.17</time>
   <time name="orth">    3.09    3.10</time>
   <time name="total">  282.15  282.47</time>
   <energy>
    <i name="e_fr_energy">    -36.91492269 </i>
    <i name="e_wo_entrp">    -36.91489203 </i>
    <i name="e_0_energy">    -36.91490736 </i>
   </energy>
  </scstep>
  <scstep>
   <time name="diag">   79.67   79.68</time>
   <time name="diis">  160.39  160.42</time>
   <time name="orth">    3.09    3.09</time>
   <time name="total">  245.51  245.59</time>
   <energy>
    <i name="alphaZ">      6.18334092 </i>
    <i name="ewald">   2532.04253332 </i>
    <i name="hartreedc">  -3026.12404207 </i>
    <i name="XCdc">     57.37210451 </i>
    <i name="pawpsdc">    273.78266931 </i>
    <i name="pawaedc">   -278.91654513 </i>
    <i name="eentropy">     -0.00003066 </i>
    <i name="bandstr">   -189.87847979 </i>
    <i name="atom">    588.62352690 </i>
    <i name="e_fr_energy">    -36.91492269 </i>
    <i name="e_wo_entrp">    -36.91489203 </i>
    <i name="e_0_energy">    -36.91490736 </i>
   </energy>
  </scstep>
  <structure>
   <crystal>
    <varray name="basis" >
     <v>       4.26579528       0.00000000       0.00000000 </v>
     <v>       0.00000000       2.49148001       0.00000000 </v>
     <v>       0.00000000       0.00000000      19.83769773 </v>
    </varray>
    <i name="volume">    210.83790140 </i>
    <varray name="rec_basis" >
     <v>       0.23442288       0.00000000       0.00000000 </v>
     <v>       0.00000000       0.40136786       0.00000000 </v>
     <v>       0.00000000       0.00000000       0.05040908 </v>
    </varray>
   </crystal>
   <varray name="positions" >
    <v>       0.00025627      -0.00000000      -0.00000000 </v>
    <v>       0.16641040       0.50000000       0.00000000 </v>
    <v>       0.50025627       0.50000000      -0.00000000 </v>
    <v>       0.66641040      -0.00000000       0.00000000 </v>
   </varray>
  </structure>
  <varray name="forces" >
   <v>      -0.00001255      -0.00000000       0.00000000 </v>
   <v>       0.00001255       0.00000000      -0.00000000 </v>
   <v>      -0.00001255      -0.00000000       0.00000000 </v>
   <v>       0.00001255       0.00000000      -0.00000000 </v>
  </varray>
  <varray name="stress" >
   <v>      -0.00832280       0.00000000       0.00000000 </v>
   <v>       0.00000000     -16.38546609       0.00000000 </v>
   <v>       0.00000000       0.00000000      -0.01013399 </v>
  </varray>
  <energy>
   <i name="e_fr_energy">    -36.91492269 </i>
   <i name="e_wo_entrp">    -36.91490736 </i>
   <i name="e_0_energy">     -0.00003066 </i>
  </energy>
  <time name="totalsc"> 2075.02 2077.93</time>
 </calculation>
 <calculation>
  <scstep>
   <time name="dav">  248.30  248.43</time>
   <time name="total">  280.85  281.14</time>
   <energy>
    <i name="alphaZ">      6.18334092 </i>
    <i name="ewald">   2532.04253360 </i>
    <i name="hartreedc">  -3026.12404183 </i>
    <i name="XCdc">     57.37210451 </i>
    <i name="pawpsdc">    273.78266940 </i>
    <i name="pawaedc">   -278.91654523 </i>
    <i name="eentropy">     -0.00003066 </i>
    <i name="bandstr">   -189.87848031 </i>
    <i name="atom">    588.62352690 </i>
    <i name="e_fr_energy">    -36.91492269 </i>
    <i name="e_wo_entrp">    -36.91489203 </i>
    <i name="e_0_energy">    -36.91490736 </i>
   </energy>
  </scstep>
  <scstep>
   <time name="diag">   79.56   79.78</time>
   <time name="diis">  145.92  145.94</time>
   <time name="orth">    3.09    3.09</time>
   <time name="total">  261.40  261.65</time>
   <energy>
    <i name="e_fr_energy">    -36.91492269 </i>
    <i name="e_wo_entrp">    -36.91489203 </i>
    <i name="e_0_energy">    -36.91490736 </i>
   </energy>
  </scstep>
  <scstep>
   <time name="diag">   79.84   79.87</time>
   <time name="diis">  148.66  148.77</time>
   <time name="orth">    3.07    3.07</time>
   <time name="total">  264.32  265.77</time>
   <energy>
    <i name="e_fr_energy">    -36.91492269 </i>
    <i name="e_wo_entrp">    -36.91489203 </i>
    <i name="e_0_energy">    -36.91490736 </i>
   </energy>
  </scstep>
  <scstep>
   <time name="diag">   79.80   79.82</time>
   <time name="diis">  148.38  148.40</time>
   <time name="orth">    3.09    3.09</time>
   <time name="total">  264.14  264.20</time>
   <energy>
    <i name="e_fr_energy">    -36.91492269 </i>
    <i name="e_wo_entrp">    -36.91489203 </i>
    <i name="e_0_energy">    -36.91490736 </i>
   </energy>
  </scstep>
  <scstep>
   <time name="diag">   79.57   79.59</time>
   <time name="diis">  142.60  142.88</time>
   <time name="orth">    3.09    3.09</time>
   <time name="total">  256.91  257.21</time>
   <energy>
    <i name="e_fr_energy">    -36.91492269 </i>
    <i name="e_wo_entrp">    -36.91489203 </i>
    <i name="e_0_energy">    -36.91490736 </i>
   </energy>
  </scstep>
  <scstep>
   <time name="diag">   79.57   79.59</time>
   <time name="diis">  145.51  145.70</time>
   <time name="orth">    3.09    3.09</time>
   <time name="total">  259.95  260.17</time>
   <energy>
    <i name="e_fr_energy">    -36.91492269 </i>
    <i name="e_wo_entrp">    -36.91489203 </i>
    <i name="e_0_energy">    -36.91490736 </i>
   </energy>
  </scstep>
  <scstep>
   <time name="diag">   79.54   79.57</time>
   <time name="diis">  134.64  134.67</time>
   <time name="orth">    3.10    3.10</time>
   <time name="total">  248.68  248.77</time>
   <energy>
    <i name="e_fr_energy">    -36.91492269 </i>
    <i name="e_wo_entrp">    -36.91489203 </i>
    <i name="e_0_energy">    -36.91490736 </i>
   </energy>
  </scstep>
  <scstep>
   <time name="diag">   79.53   79.54</time>
   <time name="diis">  136.50  136.52</time>
   <time name="orth">    3.09    3.09</time>
   <time name="total">  251.92  252.00</time>
   <energy>
    <i name="e_fr_energy">    -36.91492269 </i>
    <i name="e_wo_entrp">    -36.91489203 </i>
    <i name="e_0_energy">    -36.91490736 </i>
   </energy>
  </scstep>
  <scstep>
   <time name="diag">   79.58   79.66</time>
   <time name="diis">  130.97  131.02</time>
   <time name="orth">    3.09    3.09</time>
   <time name="total">  216.02  216.18</time>
   <energy>
    <i name="alphaZ">      6.18334092 </i>
    <i name="ewald">   2532.04253360 </i>
    <i name="hartreedc">  -3026.12404605 </i>
    <i name="XCdc">     57.37210465 </i>
    <i name="pawpsdc">    273.78267140 </i>
    <i name="pawaedc">   -278.91654725 </i>
    <i name="eentropy">     -0.00003066 </i>
    <i name="bandstr">   -189.87847620 </i>
    <i name="atom">    588.62352690 </i>
    <i name="e_fr_energy">    -36.91492269 </i>
    <i name="e_wo_entrp">    -36.91489203 </i>
    <i name="e_0_energy">    -36.91490736 </i>
   </energy>
  </scstep>
  <structure>
   <crystal>
    <varray name="basis" >
     <v>       4.26579528       0.00000000       0.00000000 </v>
     <v>       0.00000000       2.49148001       0.00000000 </v>
     <v>       0.00000000       0.00000000      19.83769773 </v>
    </varray>
    <i name="volume">    210.83790140 </i>
    <varray name="rec_basis" >
     <v>       0.23442288       0.00000000       0.00000000 </v>
     <v>       0.00000000       0.40136786       0.00000000 </v>
     <v>       0.00000000       0.00000000       0.05040908 </v>
    </varray>
   </crystal>
   <varray name="positions" >
    <v>       0.00025626      -0.00000000      -0.00000000 </v>
    <v>       0.16641040       0.50000000       0.00000000 </v>
    <v>       0.50025626       0.50000000      -0.00000000 </v>
    <v>       0.66641040      -0.00000000       0.00000000 </v>
   </varray>
  </structure>
  <varray name="forces" >
   <v>      -0.00000356       0.00000000       0.00000000 </v>
   <v>       0.00000356      -0.00000000      -0.00000000 </v>
   <v>      -0.00000356       0.00000000       0.00000000 </v>
   <v>       0.00000356       0.00000000      -0.00000000 </v>
  </varray>
  <varray name="stress" >
   <v>      -0.00828127       0.00000000       0.00000000 </v>
   <v>       0.00000000     -16.38551012       0.00000000 </v>
   <v>       0.00000000       0.00000000      -0.01011191 </v>
  </varray>
  <energy>
   <i name="e_fr_energy">    -36.91492269 </i>
   <i name="e_wo_entrp">    -36.91490736 </i>
   <i name="e_0_energy">     -0.00003066 </i>
  </energy>
  <time name="totalsc"> 2405.72 2421.09</time>
 </calculation>
 <calculation>
  <scstep>
   <time name="dav">  247.07  247.42</time>
   <time name="total">  278.78  279.33</time>
   <energy>
    <i name="alphaZ">      6.18334092 </i>
    <i name="ewald">   2532.04253371 </i>
    <i name="hartreedc">  -3026.12404614 </i>
    <i name="XCdc">     57.37210465 </i>
    <i name="pawpsdc">    273.78267139 </i>
    <i name="pawaedc">   -278.91654724 </i>
    <i name="eentropy">     -0.00003066 </i>
    <i name="bandstr">   -189.87847623 </i>
    <i name="atom">    588.62352690 </i>
    <i name="e_fr_energy">    -36.91492269 </i>
    <i name="e_wo_entrp">    -36.91489203 </i>
    <i name="e_0_energy">    -36.91490736 </i>
   </energy>
  </scstep>
  <scstep>
   <time name="diag">   79.12   79.76</time>
   <time name="diis">  122.77  123.84</time>
   <time name="orth">    3.08    3.08</time>
   <time name="total">  236.65  238.68</time>
   <energy>
    <i name="e_fr_energy">    -36.91492269 </i>
    <i name="e_wo_entrp">    -36.91489203 </i>
    <i name="e_0_energy">    -36.91490736 </i>
   </energy>
  </scstep>
  <scstep>
   <time name="diag">   79.38   79.77</time>
   <time name="diis">  133.53  134.28</time>
   <time name="orth">    3.08    3.08</time>
   <time name="total">  246.85  248.29</time>
   <energy>
    <i name="e_fr_energy">    -36.91492269 </i>
    <i name="e_wo_entrp">    -36.91489203 </i>
    <i name="e_0_energy">    -36.91490736 </i>
   </energy>
  </scstep>
  <scstep>
   <time name="diag">   79.24   79.74</time>
   <time name="diis">  135.98  136.91</time>
   <time name="orth">    3.08    3.08</time>
   <time name="total">  250.96  252.70</time>
   <energy>
    <i name="e_fr_energy">    -36.91492269 </i>
    <i name="e_wo_entrp">    -36.91489203 </i>
    <i name="e_0_energy">    -36.91490736 </i>
   </energy>
  </scstep>
  <scstep>
   <time name="diag">   79.09   79.67</time>
   <time name="diis">  128.88  130.28</time>
   <time name="orth">    3.06    3.11</time>
   <time name="total">  213.43  215.47</time>
   <energy>
    <i name="alphaZ">      6.18334092 </i>
    <i name="ewald">   2532.04253371 </i>
    <i name="hartreedc">  -3026.12404532 </i>
    <i name="XCdc">     57.37210462 </i>
    <i name="pawpsdc">    273.78267119 </i>
    <i name="pawaedc">   -278.91654703 </i>
    <i name="eentropy">     -0.00003066 </i>
    <i name="bandstr">   -189.87847702 </i>
    <i name="atom">    588.62352690 </i>
    <i name="e_fr_energy">    -36.91492269 </i>
    <i name="e_wo_entrp">    -36.91489203 </i>
    <i name="e_0_energy">    -36.91490736 </i>
   </energy>
  </scstep>
  <structure>
   <crystal>
    <varray name="basis" >
     <v>       4.26579528       0.00000000       0.00000000 </v>
     <v>       0.00000000       2.49148001       0.00000000 </v>
     <v>       0.00000000       0.00000000      19.83769773 </v>
    </varray>
    <i name="volume">    210.83790140 </i>
    <varray name="rec_basis" >
     <v>       0.23442288       0.00000000       0.00000000 </v>
     <v>       0.00000000       0.40136786       0.00000000 </v>
     <v>       0.00000000       0.00000000       0.05040908 </v>
    </varray>
   </crystal>
   <varray name="positions" >
    <v>       0.00025626      -0.00000000       0.00000000 </v>
    <v>       0.16641041       0.50000000      -0.00000000 </v>
    <v>       0.50025626       0.50000000       0.00000000 </v>
    <v>       0.66641041      -0.00000000      -0.00000000 </v>
   </varray>
  </structure>
  <varray name="forces" >
   <v>      -0.00000310       0.00000000       0.00000000 </v>
   <v>       0.00000310      -0.00000000      -0.00000000 </v>
   <v>      -0.00000310      -0.00000000       0.00000000 </v>
   <v>       0.00000310      -0.00000000      -0.00000000 </v>
  </varray>
  <varray name="stress" >
   <v>      -0.00828444       0.00000000       0.00000000 </v>
   <v>       0.00000000     -16.38550233       0.00000000 </v>
   <v>       0.00000000       0.00000000      -0.01012089 </v>
  </varray>
  <energy>
   <i name="e_fr_energy">    -36.91492269 </i>
   <i name="e_wo_entrp">    -36.91490736 </i>
   <i name="e_0_energy">     -0.00003066 </i>
  </energy>
  <time name="totalsc"> 1328.72 1337.34</time>
 </calculation>
 <calculation>
  <scstep>
   <time name="dav">  240.08  241.13</time>
   <time name="total">  272.64  274.01</time>
   <energy>
    <i name="alphaZ">      6.18334092 </i>
    <i name="ewald">   2532.04253445 </i>
    <i name="hartreedc">  -3026.12404556 </i>
    <i name="XCdc">     57.37210464 </i>
    <i name="pawpsdc">    273.78267119 </i>
    <i name="pawaedc">   -278.91654704 </i>
    <i name="eentropy">     -0.00003066 </i>
    <i name="bandstr">   -189.87847755 </i>
    <i name="atom">    588.62352690 </i>
    <i name="e_fr_energy">    -36.91492269 </i>
    <i name="e_wo_entrp">    -36.91489203 </i>
    <i name="e_0_energy">    -36.91490736 </i>
   </energy>
  </scstep>
  <scstep>
   <time name="diag">   79.13   79.79</time>
   <time name="diis">  158.44  159.78</time>
   <time name="orth">    3.07    3.09</time>
   <time name="total">  273.14  275.48</time>
   <energy>
    <i name="e_fr_energy">    -36.91492269 </i>
    <i name="e_wo_entrp">    -36.91489203 </i>
    <i name="e_0_energy">    -36.91490736 </i>
   </energy>
  </scstep>
  <scstep>
   <time name="diag">   79.14   79.86</time>
   <time name="diis">  141.05  141.95</time>
   <time name="orth">    3.09    3.09</time>
   <time name="total">  256.05  257.79</time>
   <energy>
    <i name="e_fr_energy">    -36.91492269 </i>
    <i name="e_wo_entrp">    -36.91489203 </i>
    <i name="e_0_energy">    -36.91490736 </i>
   </energy>
  </scstep>
  <scstep>
   <time name="diag">   79.75   79.83</time>
   <time name="diis">  146.28  146.51</time>
   <time name="orth">    3.08    3.11</time>
   <time name="total">  261.60  262.32</time>
   <energy>
    <i name="e_fr_energy">    -36.91492269 </i>
    <i name="e_wo_entrp">    -36.91489203 </i>
    <i name="e_0_energy">    -36.91490736 </i>
   </energy>
  </scstep>
  <scstep>
   <time name="diag">   79.17   79.86</time>
   <time name="diis">  120.41  121.55</time>
   <time name="orth">    3.08    3.11</time>
   <time name="total">  205.05  206.95</time>
   <energy>
    <i name="alphaZ">      6.18334092 </i>
    <i name="ewald">   2532.04253445 </i>
    <i name="hartreedc">  -3026.12404643 </i>
    <i name="XCdc">     57.37210467 </i>
    <i name="pawpsdc">    273.78267375 </i>
    <i name="pawaedc">   -278.91654960 </i>
    <i name="eentropy">     -0.00003066 </i>
    <i name="bandstr">   -189.87847670 </i>
    <i name="atom">    588.62352690 </i>
    <i name="e_fr_energy">    -36.91492269 </i>
    <i name="e_wo_entrp">    -36.91489203 </i>
    <i name="e_0_energy">    -36.91490736 </i>
   </energy>
  </scstep>
  <structure>
   <crystal>
    <varray name="basis" >
     <v>       4.26579528       0.00000000       0.00000000 </v>
     <v>       0.00000000       2.49148001       0.00000000 </v>
     <v>       0.00000000       0.00000000      19.83769773 </v>
    </varray>
    <i name="volume">    210.83790140 </i>
    <varray name="rec_basis" >
     <v>       0.23442288       0.00000000       0.00000000 </v>
     <v>       0.00000000       0.40136786       0.00000000 </v>
     <v>       0.00000000       0.00000000       0.05040908 </v>
    </varray>
   </crystal>
   <varray name="positions" >
    <v>       0.00025624       0.00000000       0.00000000 </v>
    <v>       0.16641043       0.50000000      -0.00000000 </v>
    <v>       0.50025624       0.50000000       0.00000000 </v>
    <v>       0.66641043      -0.00000000      -0.00000000 </v>
   </varray>
  </structure>
  <varray name="forces" >
   <v>       0.00000590       0.00000000       0.00000000 </v>
   <v>      -0.00000590      -0.00000000       0.00000000 </v>
   <v>       0.00000590       0.00000000       0.00000000 </v>
   <v>      -0.00000590      -0.00000000       0.00000000 </v>
  </varray>
  <varray name="stress" >
   <v>      -0.00825993       0.00000000       0.00000000 </v>
   <v>       0.00000000     -16.38552525       0.00000000 </v>
   <v>       0.00000000       0.00000000      -0.01011527 </v>
  </varray>
  <energy>
[...]
       <r>   -9.1269    1.0000 </r>
       <r>   -5.6233    1.0000 </r>
       <r>   -5.6233    1.0000 </r>
       <r>   -0.4827    0.0000 </r>
       <r>   -0.4827    0.0000 </r>
       <r>    4.8295    0.0000 </r>
       <r>    4.8295    0.0000 </r>
      </set>
      <set comment="kpoint 209">
       <r>  -18.8403    1.0000 </r>
       <r>  -17.0909    1.0000 </r>
       <r>  -13.9748    1.0000 </r>
       <r>  -12.3778    1.0000 </r>
       <r>  -12.3760    1.0000 </r>
       <r>  -10.8724    1.0000 </r>
       <r>   -6.4519    1.0000 </r>
       <r>   -4.5972    1.0000 </r>
       <r>   -0.9896    0.0000 </r>
       <r>    1.1329    0.0000 </r>
       <r>    5.1620    0.0000 </r>
       <r>    5.9508    0.0000 </r>
      </set>
      <set comment="kpoint 210">
       <r>  -18.8306    1.0000 </r>
       <r>  -17.0832    1.0000 </r>
       <r>  -14.0636    1.0000 </r>
       <r>  -12.4586    1.0000 </r>
       <r>  -12.2809    1.0000 </r>
       <r>  -10.7918    1.0000 </r>
       <r>   -6.4431    1.0000 </r>
       <r>   -4.5998    1.0000 </r>
       <r>   -0.9998    0.0000 </r>
       <r>    1.1071    0.0000 </r>
       <r>    5.1756    0.0000 </r>
       <r>    5.9670    0.0000 </r>
      </set>
      <set comment="kpoint 211">
       <r>  -18.8014    1.0000 </r>
       <r>  -17.0607    1.0000 </r>
       <r>  -14.2827    1.0000 </r>
       <r>  -12.6662    1.0000 </r>
       <r>  -12.0378    1.0000 </r>
       <r>  -10.5909    1.0000 </r>
       <r>   -6.4167    1.0000 </r>
       <r>   -4.6079    1.0000 </r>
       <r>   -1.0288    0.0000 </r>
       <r>    1.0318    0.0000 </r>
       <r>    5.2165    0.0000 </r>
       <r>    6.0149    0.0000 </r>
      </set>
      <set comment="kpoint 212">
       <r>  -18.7528    1.0000 </r>
       <r>  -17.0244    1.0000 </r>
       <r>  -14.5606    1.0000 </r>
       <r>  -12.9369    1.0000 </r>
       <r>  -11.7199    1.0000 </r>
       <r>  -10.3336    1.0000 </r>
       <r>   -6.3731    1.0000 </r>
       <r>   -4.6233    1.0000 </r>
       <r>   -1.0713    0.0000 </r>
       <r>    0.9122    0.0000 </r>
       <r>    5.2843    0.0000 </r>
       <r>    6.0937    0.0000 </r>
      </set>
      <set comment="kpoint 213">
       <r>  -18.6851    1.0000 </r>
       <r>  -16.9771    1.0000 </r>
       <r>  -14.8549    1.0000 </r>
       <r>  -13.2336    1.0000 </r>
       <r>  -11.3694    1.0000 </r>
       <r>  -10.0602    1.0000 </r>
       <r>   -6.3127    1.0000 </r>
       <r>   -4.6482    1.0000 </r>
       <r>   -1.1195    0.0000 </r>
       <r>    0.7562    0.0000 </r>
       <r>    5.3781    0.0000 </r>
       <r>    6.2019    0.0000 </r>
      </set>
      <set comment="kpoint 214">
       <r>  -18.5983    1.0000 </r>
       <r>  -16.9240    1.0000 </r>
       <r>  -15.1419    1.0000 </r>
       <r>  -13.5384    1.0000 </r>
       <r>  -11.0082    1.0000 </r>
       <r>   -9.7937    1.0000 </r>
       <r>   -6.2364    1.0000 </r>
       <r>   -4.6853    1.0000 </r>
       <r>   -1.1641    0.0000 </r>
       <r>    0.5727    0.0000 </r>
       <r>    5.4935    0.0000 </r>
       <r>    6.1783    0.0000 </r>
      </set>
      <set comment="kpoint 215">
       <r>  -18.4930    1.0000 </r>
       <r>  -16.8750    1.0000 </r>
       <r>  -15.4024    1.0000 </r>
       <r>  -13.8414    1.0000 </r>
       <r>  -10.6498    1.0000 </r>
       <r>   -9.5493    1.0000 </r>
       <r>   -6.1451    1.0000 </r>
       <r>   -4.7375    1.0000 </r>
       <r>   -1.1959    0.0000 </r>
       <r>    0.3706    0.0000 </r>
       <r>    5.5738    0.0000 </r>
       <r>    5.8039    0.0000 </r>
      </set>
      <set comment="kpoint 216">
       <r>  -18.3694    1.0000 </r>
       <r>  -16.8491    1.0000 </r>
       <r>  -15.6126    1.0000 </r>
       <r>  -14.1371    1.0000 </r>
       <r>  -10.3048    1.0000 </r>
       <r>   -9.3392    1.0000 </r>
       <r>   -6.0401    1.0000 </r>
       <r>   -4.8067    1.0000 </r>
       <r>   -1.2068    0.0000 </r>
       <r>    0.1583    0.0000 </r>
       <r>    5.3081    0.0000 </r>
       <r>    5.8674    0.0000 </r>
      </set>
      <set comment="kpoint 217">
       <r>  -18.2283    1.0000 </r>
       <r>  -16.8749    1.0000 </r>
       <r>  -15.7407    1.0000 </r>
       <r>  -14.4215    1.0000 </r>
       <r>   -9.9827    1.0000 </r>
       <r>   -9.1739    1.0000 </r>
       <r>   -5.9231    1.0000 </r>
       <r>   -4.8937    1.0000 </r>
       <r>   -1.1904    0.0000 </r>
       <r>   -0.0565    0.0000 </r>
       <r>    5.0137    0.0000 </r>
       <r>    5.8388    0.0000 </r>
      </set>
      <set comment="kpoint 218">
       <r>  -18.0706    1.0000 </r>
       <r>  -16.9726    1.0000 </r>
       <r>  -15.7650    1.0000 </r>
       <r>  -14.6917    1.0000 </r>
       <r>   -9.6926    1.0000 </r>
       <r>   -9.0622    1.0000 </r>
       <r>   -5.7961    1.0000 </r>
       <r>   -4.9977    1.0000 </r>
       <r>   -1.1432    0.0000 </r>
       <r>   -0.2669    0.0000 </r>
       <r>    4.7967    0.0000 </r>
       <r>    5.4403    0.0000 </r>
      </set>
      <set comment="kpoint 219">
       <r>  -17.8977    1.0000 </r>
       <r>  -17.1301    1.0000 </r>
       <r>  -15.6964    1.0000 </r>
       <r>  -14.9447    1.0000 </r>
       <r>   -9.4438    1.0000 </r>
       <r>   -9.0111    1.0000 </r>
       <r>   -5.6617    1.0000 </r>
       <r>   -5.1163    1.0000 </r>
       <r>   -1.0639    0.0000 </r>
       <r>   -0.4670    0.0000 </r>
       <r>    4.6700    0.0000 </r>
       <r>    5.1122    0.0000 </r>
      </set>
      <set comment="kpoint 220">
       <r>  -17.7119    1.0000 </r>
       <r>  -17.3187    1.0000 </r>
       <r>  -15.5628    1.0000 </r>
       <r>  -15.1775    1.0000 </r>
       <r>   -9.2448    1.0000 </r>
       <r>   -9.0245    1.0000 </r>
       <r>   -5.5228    1.0000 </r>
       <r>   -5.2461    1.0000 </r>
       <r>   -0.9537    0.0000 </r>
       <r>   -0.6513    0.0000 </r>
       <r>    4.6389    0.0000 </r>
       <r>    4.8642    0.0000 </r>
      </set>
      <set comment="kpoint 221">
       <r>  -17.5167    1.0000 </r>
       <r>  -17.5167    1.0000 </r>
       <r>  -15.3858    1.0000 </r>
       <r>  -15.3858    1.0000 </r>
       <r>   -9.1033    1.0000 </r>
       <r>   -9.1033    1.0000 </r>
       <r>   -5.3830    1.0000 </r>
       <r>   -5.3830    1.0000 </r>
       <r>   -0.8149    0.0000 </r>
       <r>   -0.8149    0.0000 </r>
       <r>    4.7045    0.0000 </r>
       <r>    4.7045    0.0000 </r>
      </set>
      <set comment="kpoint 222">
       <r>  -18.4268    1.0000 </r>
       <r>  -17.5484    1.0000 </r>
       <r>  -13.6046    1.0000 </r>
       <r>  -12.8045    1.0000 </r>
       <r>  -12.0349    1.0000 </r>
       <r>  -11.2776    1.0000 </r>
       <r>   -6.0009    1.0000 </r>
       <r>   -5.0684    1.0000 </r>
       <r>   -0.4917    0.0000 </r>
       <r>    0.5716    0.0000 </r>
       <r>    5.7496    0.0000 </r>
       <r>    6.5038    0.0000 </r>
      </set>
      <set comment="kpoint 223">
       <r>  -18.4172    1.0000 </r>
       <r>  -17.5396    1.0000 </r>
       <r>  -13.6937    1.0000 </r>
       <r>  -12.8898    1.0000 </r>
       <r>  -11.9406    1.0000 </r>
       <r>  -11.1917    1.0000 </r>
       <r>   -5.9934    1.0000 </r>
       <r>   -5.0659    1.0000 </r>
       <r>   -0.5084    0.0000 </r>
       <r>    0.5478    0.0000 </r>
       <r>    5.7632    0.0000 </r>
       <r>    6.5208    0.0000 </r>
      </set>
      <set comment="kpoint 224">
       <r>  -18.3886    1.0000 </r>
       <r>  -17.5136    1.0000 </r>
       <r>  -13.9140    1.0000 </r>
       <r>  -13.1032    1.0000 </r>
       <r>  -11.7046    1.0000 </r>
       <r>  -10.9773    1.0000 </r>
       <r>   -5.9710    1.0000 </r>
       <r>   -5.0587    1.0000 </r>
       <r>   -0.5566    0.0000 </r>
       <r>    0.4786    0.0000 </r>
       <r>    5.8039    0.0000 </r>
       <r>    6.5712    0.0000 </r>
      </set>
      <set comment="kpoint 225">
       <r>  -18.3410    1.0000 </r>
       <r>  -17.4707    1.0000 </r>
       <r>  -14.1958    1.0000 </r>
       <r>  -13.3794    1.0000 </r>
       <r>  -11.3979    1.0000 </r>
       <r>  -10.7013    1.0000 </r>
       <r>   -5.9341    1.0000 </r>
       <r>   -5.0480    1.0000 </r>
       <r>   -0.6312    0.0000 </r>
       <r>    0.3691    0.0000 </r>
       <r>    5.8712    0.0000 </r>
       <r>    6.6536    0.0000 </r>
      </set>
      <set comment="kpoint 226">
       <r>  -18.2748    1.0000 </r>
       <r>  -17.4120    1.0000 </r>
       <r>  -14.4988    1.0000 </r>
       <r>  -13.6806    1.0000 </r>
       <r>  -11.0625    1.0000 </r>
       <r>  -10.4046    1.0000 </r>
       <r>   -5.8836    1.0000 </r>
       <r>   -5.0356    1.0000 </r>
       <r>   -0.7241    0.0000 </r>
       <r>    0.2270    0.0000 </r>
       <r>    5.9633    0.0000 </r>
       <r>    6.7661    0.0000 </r>
      </set>
      <set comment="kpoint 227">
       <r>  -18.1902    1.0000 </r>
       <r>  -17.3391    1.0000 </r>
       <r>  -14.8030    1.0000 </r>
       <r>  -13.9882    1.0000 </r>
       <r>  -10.7204    1.0000 </r>
       <r>  -10.1100    1.0000 </r>
       <r>   -5.8206    1.0000 </r>
       <r>   -5.0240    1.0000 </r>
       <r>   -0.8258    0.0000 </r>
       <r>    0.0614    0.0000 </r>
       <r>    6.0662    0.0000 </r>
       <r>    6.4528    0.0000 </r>
      </set>
      <set comment="kpoint 228">
       <r>  -18.0878    1.0000 </r>
       <r>  -17.2550    1.0000 </r>
       <r>  -15.0961    1.0000 </r>
       <r>  -14.2925    1.0000 </r>
       <r>  -10.3855    1.0000 </r>
       <r>   -9.8321    1.0000 </r>
       <r>   -5.7466    1.0000 </r>
       <r>   -5.0164    1.0000 </r>
       <r>   -0.9261    0.0000 </r>
       <r>   -0.1184    0.0000 </r>
       <r>    5.9055    0.0000 </r>
       <r>    6.2854    0.0000 </r>
      </set>
      <set comment="kpoint 229">
       <r>  -17.9685    1.0000 </r>
       <r>  -17.1654    1.0000 </r>
       <r>  -15.3677    1.0000 </r>
       <r>  -14.5875    1.0000 </r>
       <r>  -10.0689    1.0000 </r>
       <r>   -9.5830    1.0000 </r>
       <r>   -5.6637    1.0000 </r>
       <r>   -5.0163    1.0000 </r>
       <r>   -1.0150    0.0000 </r>
       <r>   -0.3035    0.0000 </r>
       <r>    5.5061    0.0000 </r>
       <r>    6.0003    0.0000 </r>
      </set>
      <set comment="kpoint 230">
       <r>  -17.8335    1.0000 </r>
       <r>  -17.0808    1.0000 </r>
       <r>  -15.6042    1.0000 </r>
       <r>  -14.8690    1.0000 </r>
       <r>   -9.7805    1.0000 </r>
       <r>   -9.3732    1.0000 </r>
       <r>   -5.5742    1.0000 </r>
       <r>   -5.0272    1.0000 </r>
       <r>   -1.0834    0.0000 </r>
       <r>   -0.4853    0.0000 </r>
       <r>    5.1598    0.0000 </r>
       <r>    5.5741    0.0000 </r>
      </set>
      <set comment="kpoint 231">
       <r>  -17.6849    1.0000 </r>
       <r>  -17.0210    1.0000 </r>
       <r>  -15.7840    1.0000 </r>
       <r>  -15.1327    1.0000 </r>
       <r>   -9.5297    1.0000 </r>
       <r>   -9.2120    1.0000 </r>
       <r>   -5.4813    1.0000 </r>
       <r>   -5.0518    1.0000 </r>
       <r>   -1.1237    0.0000 </r>
       <r>   -0.6562    0.0000 </r>
       <r>    4.8905    0.0000 </r>
       <r>    5.2141    0.0000 </r>
      </set>
      <set comment="kpoint 232">
       <r>  -17.5262    1.0000 </r>
       <r>  -17.0155    1.0000 </r>
       <r>  -15.8765    1.0000 </r>
       <r>  -15.3740    1.0000 </r>
       <r>   -9.3257    1.0000 </r>
       <r>   -9.1075    1.0000 </r>
       <r>   -5.3883    1.0000 </r>
       <r>   -5.0919    1.0000 </r>
       <r>   -1.1306    0.0000 </r>
       <r>   -0.8091    0.0000 </r>
       <r>    4.7083    0.0000 </r>
       <r>    4.9309    0.0000 </r>
      </set>
      <set comment="kpoint 233">
       <r>  -17.3636    1.0000 </r>
       <r>  -17.0829    1.0000 </r>
       <r>  -15.8623    1.0000 </r>
       <r>  -15.5857    1.0000 </r>
       <r>   -9.1765    1.0000 </r>
       <r>   -9.0654    1.0000 </r>
       <r>   -5.2991    1.0000 </r>
       <r>   -5.1477    1.0000 </r>
       <r>   -1.1016    0.0000 </r>
       <r>   -0.9377    0.0000 </r>
       <r>    4.6200    0.0000 </r>
       <r>    4.7335    0.0000 </r>
      </set>
      <set comment="kpoint 234">
       <r>  -17.2087    1.0000 </r>
       <r>  -17.2087    1.0000 </r>
       <r>  -15.7556    1.0000 </r>
       <r>  -15.7556    1.0000 </r>
       <r>   -9.0886    1.0000 </r>
       <r>   -9.0886    1.0000 </r>
       <r>   -5.2177    1.0000 </r>
       <r>   -5.2177    1.0000 </r>
       <r>   -1.0365    0.0000 </r>
       <r>   -1.0365    0.0000 </r>
       <r>    4.6285    0.0000 </r>
       <r>    4.6285    0.0000 </r>
      </set>
      <set comment="kpoint 235">
       <r>  -17.9952    1.0000 </r>
       <r>  -17.9952    1.0000 </r>
       <r>  -13.2143    1.0000 </r>
       <r>  -13.2143    1.0000 </r>
       <r>  -11.6665    1.0000 </r>
       <r>  -11.6665    1.0000 </r>
       <r>   -5.5382    1.0000 </r>
       <r>   -5.5382    1.0000 </r>
       <r>    0.0293    0.0000 </r>
       <r>    0.0293    0.0000 </r>
       <r>    6.3677    0.0000 </r>
       <r>    6.3677    0.0000 </r>
      </set>
      <set comment="kpoint 236">
       <r>  -17.9859    1.0000 </r>
       <r>  -17.9859    1.0000 </r>
       <r>  -13.3020    1.0000 </r>
       <r>  -13.3020    1.0000 </r>
       <r>  -11.5759    1.0000 </r>
       <r>  -11.5759    1.0000 </r>
       <r>   -5.5326    1.0000 </r>
       <r>   -5.5326    1.0000 </r>
       <r>    0.0084    0.0000 </r>
       <r>    0.0084    0.0000 </r>
       <r>    6.3812    0.0000 </r>
       <r>    6.3812    0.0000 </r>
      </set>
      <set comment="kpoint 237">
       <r>  -17.9582    1.0000 </r>
       <r>  -17.9582    1.0000 </r>
       <r>  -13.5198    1.0000 </r>
       <r>  -13.5198    1.0000 </r>
       <r>  -11.3497    1.0000 </r>
       <r>  -11.3497    1.0000 </r>
       <r>   -5.5162    1.0000 </r>
       <r>   -5.5162    1.0000 </r>
       <r>   -0.0523    0.0000 </r>
       <r>   -0.0523    0.0000 </r>
       <r>    6.4216    0.0000 </r>
       <r>    6.4216    0.0000 </r>
      </set>
      <set comment="kpoint 238">
       <r>  -17.9122    1.0000 </r>
       <r>  -17.9122    1.0000 </r>
       <r>  -13.8001    1.0000 </r>
       <r>  -13.8001    1.0000 </r>
       <r>  -11.0572    1.0000 </r>
       <r>  -11.0572    1.0000 </r>
       <r>   -5.4895    1.0000 </r>
       <r>   -5.4895    1.0000 </r>
       <r>   -0.1476    0.0000 </r>
       <r>   -0.1476    0.0000 </r>
       <r>    6.4881    0.0000 </r>
       <r>    6.4881    0.0000 </r>
      </set>
      <set comment="kpoint 239">
       <r>  -17.8485    1.0000 </r>
       <r>  -17.8485    1.0000 </r>
       <r>  -14.1039    1.0000 </r>
       <r>  -14.1039    1.0000 </r>
       <r>  -10.7398    1.0000 </r>
       <r>  -10.7398    1.0000 </r>
       <r>   -5.4539    1.0000 </r>
       <r>   -5.4539    1.0000 </r>
       <r>   -0.2698    0.0000 </r>
       <r>   -0.2698    0.0000 </r>
       <r>    6.5766    0.0000 </r>
       <r>    6.5766    0.0000 </r>
      </set>
      <set comment="kpoint 240">
       <r>  -17.7677    1.0000 </r>
       <r>  -17.7677    1.0000 </r>
       <r>  -14.4122    1.0000 </r>
       <r>  -14.4122    1.0000 </r>
       <r>  -10.4199    1.0000 </r>
       <r>  -10.4199    1.0000 </r>
       <r>   -5.4110    1.0000 </r>
       <r>   -5.4110    1.0000 </r>
       <r>   -0.4097    0.0000 </r>
       <r>   -0.4097    0.0000 </r>
       <r>    6.6064    0.0000 </r>
       <r>    6.6064    0.0000 </r>
      </set>
      <set comment="kpoint 241">
       <r>  -17.6710    1.0000 </r>
       <r>  -17.6710    1.0000 </r>
       <r>  -14.7147    1.0000 </r>
       <r>  -14.7147    1.0000 </r>
       <r>  -10.1119    1.0000 </r>
       <r>  -10.1119    1.0000 </r>
       <r>   -5.3633    1.0000 </r>
       <r>   -5.3633    1.0000 </r>
       <r>   -0.5573    0.0000 </r>
       <r>   -0.5573    0.0000 </r>
       <r>    6.1835    0.0000 </r>
       <r>    6.1835    0.0000 </r>
      </set>
      <set comment="kpoint 242">
       <r>  -17.5603    1.0000 </r>
       <r>  -17.5603    1.0000 </r>
       <r>  -15.0045    1.0000 </r>
       <r>  -15.0045    1.0000 </r>
       <r>   -9.8273    1.0000 </r>
       <r>   -9.8273    1.0000 </r>
       <r>   -5.3136    1.0000 </r>
       <r>   -5.3136    1.0000 </r>
       <r>   -0.7031    0.0000 </r>
       <r>   -0.7031    0.0000 </r>
       <r>    5.7362    0.0000 </r>
       <r>    5.7362    0.0000 </r>
      </set>
      <set comment="kpoint 243">
       <r>  -17.4387    1.0000 </r>
       <r>  -17.4387    1.0000 </r>
       <r>  -15.2754    1.0000 </r>
       <r>  -15.2754    1.0000 </r>
       <r>   -9.5763    1.0000 </r>
       <r>   -9.5763    1.0000 </r>
       <r>   -5.2653    1.0000 </r>
       <r>   -5.2653    1.0000 </r>
       <r>   -0.8377    0.0000 </r>
       <r>   -0.8377    0.0000 </r>
       <r>    5.3470    0.0000 </r>
       <r>    5.3470    0.0000 </r>
      </set>
      <set comment="kpoint 244">
       <r>  -17.3123    1.0000 </r>
       <r>  -17.3123    1.0000 </r>
       <r>  -15.5195    1.0000 </r>
       <r>  -15.5195    1.0000 </r>
       <r>   -9.3686    1.0000 </r>
       <r>   -9.3686    1.0000 </r>
       <r>   -5.2221    1.0000 </r>
       <r>   -5.2221    1.0000 </r>
       <r>   -0.9527    0.0000 </r>
       <r>   -0.9527    0.0000 </r>
       <r>    5.0301    0.0000 </r>
       <r>    5.0301    0.0000 </r>
      </set>
      <set comment="kpoint 245">
       <r>  -17.1922    1.0000 </r>
       <r>  -17.1922    1.0000 </r>
       <r>  -15.7245    1.0000 </r>
       <r>  -15.7245    1.0000 </r>
       <r>   -9.2129    1.0000 </r>
       <r>   -9.2129    1.0000 </r>
       <r>   -5.1878    1.0000 </r>
       <r>   -5.1878    1.0000 </r>
       <r>   -1.0408    0.0000 </r>
       <r>   -1.0408    0.0000 </r>
       <r>    4.7957    0.0000 </r>
       <r>    4.7957    0.0000 </r>
      </set>
      <set comment="kpoint 246">
       <r>  -17.0990    1.0000 </r>
       <r>  -17.0990    1.0000 </r>
       <r>  -15.8689    1.0000 </r>
       <r>  -15.8689    1.0000 </r>
       <r>   -9.1163    1.0000 </r>
       <r>   -9.1163    1.0000 </r>
       <r>   -5.1657    1.0000 </r>
       <r>   -5.1657    1.0000 </r>
       <r>   -1.0962    0.0000 </r>
       <r>   -1.0962    0.0000 </r>
       <r>    4.6516    0.0000 </r>
       <r>    4.6516    0.0000 </r>
      </set>
      <set comment="kpoint 247">
       <r>  -17.0624    1.0000 </r>
       <r>  -17.0624    1.0000 </r>
       <r>  -15.9226    1.0000 </r>
       <r>  -15.9226    1.0000 </r>
       <r>   -9.0835    1.0000 </r>
       <r>   -9.0835    1.0000 </r>
       <r>   -5.1581    1.0000 </r>
       <r>   -5.1581    1.0000 </r>
       <r>   -1.1151    0.0000 </r>
       <r>   -1.1151    0.0000 </r>
       <r>    4.6030    0.0000 </r>
       <r>    4.6030    0.0000 </r>
      </set>
     </set>
    </set>
   </array>
  </eigenvalues>
  <separator name="orbital magnetization" >
   <v name="MAGDIPOLOUT">      0.00000000      0.00000000      0.00000000</v>
  </separator>
 </calculation>
 <structure name="finalpos" >
  <crystal>
   <varray name="basis" >
    <v>       4.26579528       0.00000000       0.00000000 </v>
    <v>       0.00000000       2.49148001       0.00000000 </v>
    <v>       0.00000000       0.00000000      19.83769773 </v>
   </varray>
   <i name="volume">    210.83790140 </i>
   <varray name="rec_basis" >
    <v>       0.23442288       0.00000000       0.00000000 </v>
    <v>       0.00000000       0.40136786       0.00000000 </v>
    <v>       0.00000000       0.00000000       0.05040908 </v>
   </varray>
  </crystal>
  <varray name="positions" >
   <v>       0.00025625       0.00000000       0.00000000 </v>
   <v>       0.16641042       0.50000000      -0.00000000 </v>
   <v>       0.50025625       0.50000000       0.00000000 </v>
   <v>       0.66641042      -0.00000000      -0.00000000 </v>
  </varray>
 </structure>
</modeling>
