gr                                      
           1
     4.265795    0.000000    0.000000
     0.000000    2.491480    0.000000
     0.000000    0.000000   19.837698
   C 
   4
Direct configuration=     1
   0.00026297  0.00000000  0.00000000
   0.16640370  0.50000000  0.00000000
   0.50026297  0.50000000  0.00000000
   0.66640370  0.00000000  0.00000000
Direct configuration=     2
   0.00022889 -0.00000000  0.00000000
   0.16643778  0.50000000  0.00000000
   0.50022889  0.50000000  0.00000000
   0.66643778 -0.00000000  0.00000000
Direct configuration=     3
   0.00025626 -0.00000000 -0.00000000
   0.16641041  0.50000000  0.00000000
   0.50025626  0.50000000 -0.00000000
   0.66641041 -0.00000000  0.00000000
Direct configuration=     4
   0.00025627 -0.00000000 -0.00000000
   0.16641040  0.50000000  0.00000000
   0.50025627  0.50000000 -0.00000000
   0.66641040 -0.00000000  0.00000000
Direct configuration=     5
   0.00025626 -0.00000000 -0.00000000
   0.16641040  0.50000000  0.00000000
   0.50025626  0.50000000 -0.00000000
   0.66641040 -0.00000000  0.00000000
Direct configuration=     6
   0.00025626 -0.00000000  0.00000000
   0.16641041  0.50000000 -0.00000000
   0.50025626  0.50000000  0.00000000
   0.66641041 -0.00000000 -0.00000000
Direct configuration=     7
   0.00025624  0.00000000  0.00000000
   0.16641043  0.50000000 -0.00000000
   0.50025624  0.50000000  0.00000000
   0.66641043 -0.00000000 -0.00000000
Direct configuration=     8
   0.00025625  0.00000000  0.00000000
   0.16641041  0.50000000 -0.00000000
   0.50025625  0.50000000  0.00000000
   0.66641041 -0.00000000 -0.00000000
Direct configuration=     9
   0.00025625  0.00000000  0.00000000
   0.16641042  0.50000000 -0.00000000
   0.50025625  0.50000000  0.00000000
   0.66641042 -0.00000000 -0.00000000
Direct configuration=    10
   0.00025625  0.00000000  0.00000000
   0.16641042  0.50000000 -0.00000000
   0.50025625  0.50000000  0.00000000
   0.66641042 -0.00000000 -0.00000000
