    4    4  400    1
  0.5270948E+02  0.4294196E-09  0.2465016E-09  0.1991806E-08  0.5000000E-15
  1.000000000000000E-004
  CAR 
 gr                                      
     16    247     12
 
  0.0000000E+00  0.0000000E+00  0.0000000E+00  0.1157407E-02
    1      -22.219802
    2      -17.069463
    3      -15.946879
    4      -10.332798
    5       -9.086957
    6       -5.830822
    7       -5.774007
    8       -5.156308
    9       -1.098070
   10        0.527883
   11        1.328414
   12        1.713349
 
  0.4166667E-01  0.0000000E+00  0.0000000E+00  0.2314815E-02
    1      -22.209651
    2      -17.223406
    3      -15.777727
    4      -10.320687
    5       -9.076919
    6       -5.873895
    7       -5.796071
    8       -5.221209
    9       -1.017224
   10        0.541644
   11        1.342360
   12        1.727464
 
  0.8333333E-01  0.0000000E+00  0.0000000E+00  0.2314815E-02
    1      -22.179204
    2      -17.547193
    3      -15.408392
    4      -10.284372
    5       -9.046855
    6       -6.001282
    7       -5.861058
    8       -5.401609
    9       -0.789157
   10        0.582929
   11        1.384192
   12        1.769810
 
  0.1250000E+00  0.0000000E+00  0.0000000E+00  0.2314815E-02
    1      -22.128479
    2      -17.914669
    3      -14.965285
    4      -10.223912
    5       -8.996918
    6       -6.207813
    7       -5.965548
    8       -5.665478
    9       -0.446407
   10        0.651748
   11        1.453899
   12        1.840389
 
  0.1666667E+00  0.0000000E+00  0.0000000E+00  0.2314815E-02
    1      -22.057511
    2      -18.287213
    3      -14.487457
    4      -10.139404
    5       -8.927370
    6       -6.485807
    7       -6.104444
    8       -5.980732
    9       -0.021914
   10        0.748107
   11        1.551457
   12        1.939202
 
  0.2083333E+00  0.0000000E+00  0.0000000E+00  0.2314815E-02
    1      -21.966351
    2      -18.652368
    3      -13.987988
    4      -10.030989
    5       -8.838590
    6       -6.826129
    7       -6.323241
    8       -6.271648
    9        0.458961
   10        0.872010
   11        1.676831
   12        2.066250
 
  0.2500000E+00  0.0000000E+00  0.0000000E+00  0.2314815E-02
    1      -21.855059
    2      -19.005054
    3      -13.472779
    4       -9.898856
    5       -8.731081
    6       -7.219171
    7       -6.676787
    8       -6.460717
    9        0.978350
   10        1.023446
   11        1.829968
   12        2.221533
 
  0.2916667E+00  0.0000000E+00  0.0000000E+00  0.2314815E-02
    1      -21.723717
    2      -19.342765
    3      -12.945390
    4       -9.743251
    5       -8.605495
    6       -7.655587
    7       -7.030782
    8       -6.665367
    9        1.202394
   10        1.523509
   11        2.010784
   12        2.405049
 
  0.3333333E+00  0.0000000E+00  0.0000000E+00  0.2314815E-02
    1      -21.572423
    2      -19.664066
    3      -12.408562
    4       -9.564485
    5       -8.462648
    6       -8.126749
    7       -7.378247
    8       -6.879799
    9        1.408818
   10        2.084554
   11        2.219146
   12        2.616794
 
  0.3750000E+00  0.0000000E+00  0.0000000E+00  0.2314815E-02
    1      -21.401293
    2      -19.968042
    3      -11.864817
    4       -9.362949
    5       -8.624957
    6       -8.303546
    7       -7.714473
    8       -7.098860
    9        1.642666
   10        2.454817
   11        2.652166
   12        2.856758
 
  0.4166667E+00  0.0000000E+00  0.0000000E+00  0.2314815E-02
    1      -21.210465
    2      -20.254055
    3      -11.316734
    4       -9.143491
    5       -9.139133
    6       -8.129428
    7       -8.036183
    8       -7.318090
    9        1.903870
   10        2.717299
   11        3.124928
   12        3.212228
 
  0.4583333E+00  0.0000000E+00  0.0000000E+00  0.2314815E-02
    1      -21.000105
    2      -20.521634
    3      -10.767131
    4       -9.676555
    5       -8.893652
    6       -8.341028
    7       -7.941798
    8       -7.533694
    9        2.192333
   10        2.850447
   11        3.005271
   12        3.421280
 
  0.5000000E+00  0.0000000E+00  0.0000000E+00  0.1157407E-02
    1      -20.770415
    2      -20.770415
    3      -10.219186
    4      -10.219186
    5       -8.627284
    6       -8.627284
    7       -7.742483
    8       -7.742483
    9        2.507924
   10        2.507924
   11        3.313231
   12        3.313231
 
  0.0000000E+00  0.2777778E-01  0.0000000E+00  0.2314815E-02
    1      -22.206102
    2      -17.057681
    3      -15.935249
    4      -10.316453
    5       -9.148897
    6       -5.860177
    7       -5.831280
    8       -5.139664
    9       -1.101698
   10        0.546462
   11        1.347226
   12        1.732390
 
  0.4166667E-01  0.2777778E-01  0.0000000E+00  0.4629630E-02
    1      -22.195952
    2      -17.211466
    3      -15.766304
    4      -10.304346
    5       -9.138843
    6       -5.911153
    7       -5.844780
    8       -5.204704
    9       -1.020828
   10        0.560223
   11        1.361170
   12        1.746505
 
  0.8333333E-01  0.2777778E-01  0.0000000E+00  0.4629630E-02
    1      -22.165509
    2      -17.535001
    3      -15.397374
    4      -10.268044
    5       -9.108731
    6       -6.042922
    7       -5.903522
    8       -5.385424
    9       -0.792787
   10        0.601510
   11        1.403000
   12        1.788851
 
  0.1250000E+00  0.2777778E-01  0.0000000E+00  0.4629630E-02
    1      -22.114792
    2      -17.902251
    3      -14.954750
    4      -10.207604
    5       -9.058711
    6       -6.248286
    7       -6.006426
    8       -5.649625
    9       -0.450283
   10        0.670332
   11        1.472703
   12        1.859431
 
  0.1666667E+00  0.2777778E-01  0.0000000E+00  0.4629630E-02
    1      -22.043835
    2      -18.274602
    3      -14.477487
    4      -10.123125
    5       -8.989039
    6       -6.522172
    7       -6.146168
    8       -5.965126
    9       -0.026352
   10        0.766696
   11        1.570256
   12        1.958245
 
  0.2083333E+00  0.2777778E-01  0.0000000E+00  0.4629630E-02
    1      -21.952689
    2      -18.639593
    3      -13.978682
    4      -10.014747
    5       -8.900083
    6       -6.857098
    7       -6.315355
    8       -6.307781
    9        0.453623
   10        0.890606
   11        1.695623
   12        2.085294
 
  0.2500000E+00  0.2777778E-01  0.0000000E+00  0.4629630E-02
    1      -21.841415
    2      -18.992138
    3      -13.464259
    4       -9.882660
    5       -8.792340
    6       -7.244420
    7       -6.661388
    8       -6.506844
    9        0.971800
   10        1.042051
   11        1.848752
   12        2.240580
 
  0.2916667E+00  0.2777778E-01  0.0000000E+00  0.4629630E-02
    1      -21.710095
    2      -19.329728
    3      -12.937802
    4       -9.727108
    5       -8.666444
    6       -7.675336
    7       -7.015381
    8       -6.713969
    9        1.221010
   10        1.515477
   11        2.029561
   12        2.424099
 
  0.3333333E+00  0.2777778E-01  0.0000000E+00  0.4629630E-02
    1      -21.558828
    2      -19.650925
    3      -12.402086
    4       -9.548404
    5       -8.523194
    6       -8.141490
    7       -7.362805
    8       -6.930724
    9        1.427446
   10        2.074849
   11        2.237919
   12        2.635847
 
  0.3750000E+00  0.2777778E-01  0.0000000E+00  0.4629630E-02
    1      -21.387729
    2      -19.954811
    3      -11.859666
    4       -9.346937
    5       -8.635290
    6       -8.363578
    7       -7.698964
    8       -7.151858
    9        1.661308
   10        2.473590
   11        2.640806
   12        2.875816
 
  0.4166667E+00  0.2777778E-01  0.0000000E+00  0.4629630E-02
    1      -21.196938
    2      -20.240747
    3      -11.313171
    4       -9.150031
    5       -9.123197
    6       -8.188807
    7       -8.020592
    8       -7.372877
    9        1.922527
   10        2.736085
   11        3.143993
   12        3.198369
 
  0.4583333E+00  0.2777778E-01  0.0000000E+00  0.4629630E-02
    1      -20.986621
    2      -20.508258
    3      -10.765467
    4       -9.679875
    5       -8.877798
    6       -8.325350
    7       -8.000358
    8       -7.589990
    9        2.211010
   10        2.869196
   11        3.024087
   12        3.440355
 
  0.5000000E+00  0.2777778E-01  0.0000000E+00  0.2314815E-02
    1      -20.756981
    2      -20.756981
    3      -10.219794
    4      -10.219794
    5       -8.611517
    6       -8.611517
    7       -7.800026
    8       -7.800026
    9        2.526629
   10        2.526629
   11        3.331983
   12        3.331983
 
  0.0000000E+00  0.5555556E-01  0.0000000E+00  0.2314815E-02
    1      -22.165013
    2      -17.022340
    3      -15.900506
    4      -10.267452
    5       -9.329747
    6       -5.998508
    7       -5.947582
    8       -5.089752
    9       -1.113409
   10        0.602204
   11        1.403653
   12        1.789513
 
  0.4166667E-01  0.5555556E-01  0.0000000E+00  0.4629630E-02
    1      -22.154867
    2      -17.175660
    3      -15.732180
    4      -10.255357
    5       -9.319641
    6       -6.051815
    7       -5.956817
    8       -5.155221
    9       -1.032461
   10        0.615965
   11        1.417595
   12        1.803628
 
  0.8333333E-01  0.5555556E-01  0.0000000E+00  0.4629630E-02
    1      -22.124437
    2      -17.498442
    3      -15.364466
    4      -10.219093
    5       -9.289370
    6       -6.183846
    7       -6.009826
    8       -5.336927
    9       -0.804490
   10        0.657255
   11        1.459417
   12        1.845975
 
  0.1250000E+00  0.5555556E-01  0.0000000E+00  0.4629630E-02
    1      -22.073743
    2      -17.865017
    3      -14.923310
    4      -10.158717
    5       -9.239074
    6       -6.381857
    7       -6.111949
    8       -5.602145
    9       -0.462731
   10        0.726082
   11        1.529107
   12        1.916556
 
  0.1666667E+00  0.5555556E-01  0.0000000E+00  0.4629630E-02
    1      -22.002819
    2      -18.236791
    3      -14.447774
    4      -10.074325
    5       -9.168989
    6       -6.641855
    7       -6.255905
    8       -5.918403
    9       -0.040521
   10        0.822457
   11        1.626642
   12        2.015372
 
  0.2083333E+00  0.5555556E-01  0.0000000E+00  0.4629630E-02
    1      -21.911715
    2      -18.601287
    3      -13.951008
    4       -9.966060
    5       -9.079459
    6       -6.959173
    7       -6.432535
    8       -6.261499
    9        0.436707
   10        0.946383
   11        1.751988
   12        2.142426
 
  0.2500000E+00  0.5555556E-01  0.0000000E+00  0.4629630E-02
    1      -21.800495
    2      -18.953409
    3      -13.439004
    4       -9.834111
    5       -8.970940
    6       -7.327779
    7       -6.632874
    8       -6.615286
    9        0.951178
   10        1.097850
   11        1.905094
   12        2.297717
 
  0.2916667E+00  0.5555556E-01  0.0000000E+00  0.4629630E-02
    1      -21.669243
    2      -19.290635
    3      -12.915429
    4       -9.678722
    5       -8.844023
    6       -7.740657
    7       -6.969272
    8       -6.848952
    9        1.276835
   10        1.490320
   11        2.085880
   12        2.481244
 
  0.3333333E+00  0.5555556E-01  0.0000000E+00  0.4629630E-02
    1      -21.518055
    2      -19.611518
    3      -12.383160
    4       -9.500205
    5       -8.699446
    6       -8.190429
    7       -7.316565
    8       -7.074010
    9        1.483301
   10        2.044543
   11        2.294221
   12        2.693002
 
  0.3750000E+00  0.5555556E-01  0.0000000E+00  0.4629630E-02
    1      -21.347050
    2      -19.915133
    3      -11.844874
    4       -9.298949
    5       -8.669891
    6       -8.538126
    7       -7.652516
    8       -7.302453
    9        1.717197
   10        2.529893
   11        2.605292
   12        2.932983
 
  0.4166667E+00  0.5555556E-01  0.0000000E+00  0.4629630E-02
    1      -21.156369
    2      -20.200835
    3      -11.303347
    4       -9.172368
    5       -9.075442
    6       -8.361185
    7       -7.973894
    8       -7.529691
    9        1.978455
   10        2.792426
   11        3.160478
   12        3.201177
 
  0.4583333E+00  0.5555556E-01  0.0000000E+00  0.4629630E-02
    1      -20.946181
    2      -20.468143
    3      -10.761623
    4       -9.691872
    5       -8.830294
    6       -8.278384
    7       -8.170000
    8       -7.751977
    9        2.266985
   10        2.925336
   11        3.080523
   12        3.497566
 
  0.5000000E+00  0.5555556E-01  0.0000000E+00  0.2314815E-02
    1      -20.716692
    2      -20.716692
    3      -10.223146
    4      -10.223146
    5       -8.564278
    6       -8.564278
    7       -7.966247
    8       -7.966247
    9        2.582668
   10        2.582668
   11        3.388198
   12        3.388198
 
  0.0000000E+00  0.8333333E-01  0.0000000E+00  0.2314815E-02
    1      -22.096569
    2      -16.963451
    3      -15.843126
    4      -10.185897
    5       -9.615981
    6       -6.263319
    7       -6.091094
    8       -5.006633
    9       -1.135684
   10        0.695116
   11        1.497675
   12        1.884720
 
  0.4166667E-01  0.8333333E-01  0.0000000E+00  0.4629630E-02
    1      -22.086431
    2      -17.116027
    3      -15.675814
    4      -10.173825
    5       -9.605772
    6       -6.310207
    7       -6.103661
    8       -5.072861
    9       -1.054583
   10        0.708877
   11        1.511612
   12        1.898836
 
  0.8333333E-01  0.8333333E-01  0.0000000E+00  0.4629630E-02
    1      -22.056024
    2      -17.437581
    3      -15.310146
    4      -10.137625
    5       -9.575185
    6       -6.436434
    7       -6.153714
    8       -5.256300
    9       -0.826697
   10        0.750165
   11        1.553420
   12        1.941183
 
  0.1250000E+00  0.8333333E-01  0.0000000E+00  0.4629630E-02
    1      -22.005368
    2      -17.803036
    3      -14.871507
    4      -10.077356
    5       -9.524339
    6       -6.624463
    7       -6.252713
    8       -5.523291
    9       -0.486203
   10        0.818993
   11        1.623085
   12        2.011764
 
  0.1666667E+00  0.8333333E-01  0.0000000E+00  0.4629630E-02
    1      -21.934499
    2      -18.173845
    3      -14.398963
    4       -9.993115
    5       -9.453433
    6       -6.865712
    7       -6.399685
    8       -5.840850
    9       -0.066956
   10        0.915375
   11        1.720588
   12        2.110583
 
  0.2083333E+00  0.8333333E-01  0.0000000E+00  0.4629630E-02
    1      -21.843467
    2      -18.537513
    3      -13.905763
    4       -9.885044
    5       -9.362756
    6       -7.155928
    7       -6.586730
    8       -6.184695
    9        0.405533
   10        1.039314
   11        1.845894
   12        2.237641
 
  0.2500000E+00  0.8333333E-01  0.0000000E+00  0.4629630E-02
    1      -21.732339
    2      -18.888924
    3      -13.398023
    4       -9.753332
    5       -9.252693
    6       -7.492319
    7       -6.802951
    8       -6.538777
    9        0.913611
   10        1.190802
   11        1.998954
   12        2.392939
 
  0.2916667E+00  0.8333333E-01  0.0000000E+00  0.4629630E-02
    1      -21.601197
    2      -19.225538
    3      -12.879573
    4       -9.598223
    5       -9.123735
    6       -7.871807
    7       -7.037278
    8       -6.892735
    9        1.369815
   10        1.444914
   11        2.179695
   12        2.576475
 
  0.3333333E+00  0.8333333E-01  0.0000000E+00  0.4629630E-02
    1      -21.450141
    2      -19.545894
    3      -12.353485
    4       -9.420029
    5       -8.976497
    6       -8.290079
    7       -7.280303
    8       -7.239790
    9        1.576315
   10        1.990169
   11        2.388001
   12        2.788245
 
  0.3750000E+00  0.8333333E-01  0.0000000E+00  0.4629630E-02
    1      -21.279293
    2      -19.849054
    3      -11.822685
    4       -9.219136
    5       -8.811734
    6       -8.741604
    7       -7.575374
    8       -7.524870
    9        1.810248
   10        2.541532
   11        2.623668
   12        3.028242
 
  0.4166667E+00  0.8333333E-01  0.0000000E+00  0.4629630E-02
    1      -21.088797
    2      -20.134363
    3      -11.290253
    4       -9.220228
    5       -8.996029
    6       -8.630370
    7       -7.896314
    8       -7.765792
    9        2.071545
   10        2.886266
   11        3.090013
   12        3.296457
 
  0.4583333E+00  0.8333333E-01  0.0000000E+00  0.4629630E-02
    1      -20.878826
    2      -20.401333
    3      -10.759606
    4       -9.719810
    5       -8.751314
    6       -8.433534
    7       -8.200335
    8       -7.999306
    9        2.360120
   10        3.018617
   11        3.174548
   12        3.592868
 
  0.5000000E+00  0.8333333E-01  0.0000000E+00  0.2314815E-02
    1      -20.649588
    2      -20.649588
    3      -10.234636
    4      -10.234636
    5       -8.485758
    6       -8.485758
    7       -8.222608
    8       -8.222608
    9        2.675860
   10        2.675860
   11        3.481698
   12        3.481698
 
  0.0000000E+00  0.1111111E+00  0.0000000E+00  0.2314815E-02
    1      -22.000833
    2      -16.881036
    3      -15.764008
    4      -10.071964
    5       -9.988761
    6       -6.608812
    7       -6.287565
    8       -4.890413
    9       -1.172632
   10        0.825208
   11        1.629253
   12        2.018015
 
  0.4166667E-01  0.1111111E+00  0.0000000E+00  0.4629630E-02
    1      -21.990705
    2      -17.032638
    3      -15.598079
    4      -10.059923
    5       -9.978370
    6       -6.654978
    7       -6.296818
    8       -4.957804
    9       -1.091255
   10        0.838966
   11        1.643182
   12        2.032130
 
  0.8333333E-01  0.1111111E+00  0.0000000E+00  0.4629630E-02
    1      -21.960330
    2      -17.352530
    3      -15.235323
    4      -10.023817
    5       -9.947223
    6       -6.780266
    7       -6.336287
    8       -5.143875
    9       -0.863399
   10        0.880244
   11        1.684966
   12        2.074476
 
  0.1250000E+00  0.1111111E+00  0.0000000E+00  0.4629630E-02
    1      -21.909728
    2      -17.716429
    3      -14.800381
    4       -9.963705
    5       -9.895400
    6       -6.964108
    7       -6.422047
    8       -5.413519
    9       -0.524698
   10        0.949060
   11        1.754592
   12        2.145056
 
  0.1666667E+00  0.1111111E+00  0.0000000E+00  0.4629630E-02
    1      -21.838935
    2      -18.085880
    3      -14.332320
    4       -9.879685
    5       -9.823034
    6       -7.193289
    7       -6.559901
    8       -5.732991
    9       -0.109773
   10        1.045430
   11        1.852041
   12        2.243875
 
  0.2083333E+00  0.1111111E+00  0.0000000E+00  0.4629630E-02
    1      -21.748005
    2      -18.448378
    3      -13.844535
    4       -9.771897
    5       -9.730311
    6       -7.460696
    7       -6.746979
    8       -6.077909
    9        0.355773
   10        1.169364
   11        1.977279
   12        2.370935
 
  0.2500000E+00  0.1111111E+00  0.0000000E+00  0.4629630E-02
    1      -21.637005
    2      -18.798782
    3      -13.343364
    4       -9.640532
    5       -9.617474
    6       -7.763151
    7       -6.974563
    8       -6.432389
    9        0.854489
   10        1.320856
   11        2.130261
   12        2.526237
 
  0.2916667E+00  0.1111111E+00  0.0000000E+00  0.4629630E-02
    1      -21.506018
    2      -19.134529
    3      -12.832918
    4       -9.485834
    5       -9.484819
    6       -8.100039
    7       -7.230347
    8       -6.786273
    9        1.374306
   10        1.499882
   11        2.310920
   12        2.709781
 
  0.3333333E+00  0.1111111E+00  0.0000000E+00  0.4629630E-02
    1      -21.355150
    2      -19.454138
    3      -12.316637
    4       -9.332699
    5       -9.308113
    6       -8.471727
    7       -7.500910
    8       -7.132947
    9        1.706401
   10        1.906341
   11        2.519155
   12        2.921562
 
  0.3750000E+00  0.1111111E+00  0.0000000E+00  0.4629630E-02
    1      -21.184523
    2      -19.756654
    3      -11.797922
    4       -9.161527
    5       -9.107753
    6       -8.877719
    7       -7.774294
    8       -7.467968
    9        1.940355
   10        2.443436
   11        2.754793
   12        3.161574
 
  0.4166667E+00  0.1111111E+00  0.0000000E+00  0.4629630E-02
    1      -20.994287
    2      -20.041408
    3      -11.280452
    4       -9.315434
    5       -8.971777
    6       -8.885237
    7       -8.041693
    8       -7.788247
    9        2.201672
   10        2.978837
   11        3.017476
   12        3.429808
 
  0.4583333E+00  0.1111111E+00  0.0000000E+00  0.4629630E-02
    1      -20.784622
    2      -20.307898
    3      -10.768397
    4       -9.780270
    5       -8.764012
    6       -8.641162
    7       -8.297606
    8       -8.091566
    9        2.490263
   10        3.148799
   11        3.306087
   12        3.499671
 
  0.5000000E+00  0.1111111E+00  0.0000000E+00  0.2314815E-02
    1      -20.555739
    2      -20.555739
    3      -10.266535
    4      -10.266535
    5       -8.538947
    6       -8.538947
    7       -8.376286
    8       -8.376286
    9        2.806018
   10        2.806018
   11        3.611667
   12        3.611667
 
  0.0000000E+00  0.1388889E+00  0.0000000E+00  0.2314815E-02
    1      -21.877891
    2      -16.775121
    3      -15.664672
    4      -10.427304
    5       -9.925903
    6       -7.017002
    7       -6.532802
    8       -4.741238
    9       -1.229885
   10        0.992485
   11        1.798329
   12        2.189401
 
  0.4166667E-01  0.1388889E+00  0.0000000E+00  0.4629630E-02
    1      -21.867777
    2      -16.925604
    3      -15.500463
    4      -10.416601
    5       -9.913904
    6       -7.064067
    7       -6.536412
    8       -4.810330
    9       -1.148010
   10        1.006234
   11        1.812246
   12        2.203514
 
  0.8333333E-01  0.1388889E+00  0.0000000E+00  0.4629630E-02
    1      -21.837443
    2      -17.243464
    3      -15.141574
    4      -10.384496
    5       -9.877927
    6       -7.191555
    7       -6.560044
    8       -5.000190
    9       -0.919972
   10        1.047489
   11        1.853993
   12        2.245856
 
  0.1250000E+00  0.1388889E+00  0.0000000E+00  0.4629630E-02
    1      -21.786910
    2      -17.605382
    3      -14.711773
    4      -10.330993
    5       -9.818029
    6       -7.376152
    7       -6.624174
    8       -5.273566
    9       -0.583550
   10        1.116270
   11        1.923556
   12        2.316431
 
  0.1666667E+00  0.1388889E+00  0.0000000E+00  0.4629630E-02
    1      -21.716219
    2      -17.973076
    3      -14.250121
    4      -10.256096
    5       -9.734308
    6       -7.601183
    7       -6.740393
    8       -5.595655
    9       -0.174417
   10        1.212602
   11        2.020917
   12        2.415245
 
  0.2083333E+00  0.1388889E+00  0.0000000E+00  0.4629630E-02
    1      -21.625420
    2      -18.334046
    3      -13.770256
    4      -10.159791
    5       -9.626908
    6       -7.856628
    7       -6.911235
    8       -5.941989
    9        0.281761
   10        1.336499
   11        2.146042
   12        2.542301
 
  0.2500000E+00  0.1388889E+00  0.0000000E+00  0.4629630E-02
    1      -21.514584
    2      -18.683134
    3      -13.278900
    4      -10.042028
    5       -9.496017
    6       -8.136864
    7       -7.132635
    8       -6.296943
    9        0.767860
   10        1.487963
   11        2.298888
   12        2.697603
 
  0.2916667E+00  0.1388889E+00  0.0000000E+00  0.4629630E-02
    1      -21.383799
    2      -19.017746
    3      -12.780692
    4       -9.902695
    5       -9.341881
    6       -8.439579
    7       -7.395611
    8       -6.650655
    9        1.272231
   10        1.666971
   11        2.479396
   12        2.881151
 
  0.3333333E+00  0.1388889E+00  0.0000000E+00  0.4629630E-02
    1      -21.233172
    2      -19.336378
    3      -12.279787
    4       -9.741577
    5       -9.164808
    6       -8.765257
    7       -7.687614
    8       -6.996749
    9        1.786461
   10        1.873478
   11        2.687479
   12        3.092940
 
  0.3750000E+00  0.1388889E+00  0.0000000E+00  0.4629630E-02
    1      -21.062831
    2      -19.638051
    3      -11.780522
    4       -9.558319
    5       -9.116446
    6       -8.965181
    7       -7.994069
    8       -7.330950
    9        2.107422
   10        2.304009
   11        2.923010
   12        3.332963
 
  0.4166667E+00  0.1388889E+00  0.0000000E+00  0.4629630E-02
    1      -20.872934
    2      -19.922079
    3      -11.287773
    4       -9.496243
    5       -9.352410
    6       -8.743477
    7       -8.300532
    8       -7.650287
    9        2.368722
   10        2.819374
   11        3.185749
   12        3.601211
 
  0.4583333E+00  0.1388889E+00  0.0000000E+00  0.4629630E-02
    1      -20.663666
    2      -20.187946
    3      -10.807099
    4       -9.906149
    5       -9.123270
    6       -8.595207
    7       -8.500288
    8       -7.952618
    9        2.657285
   10        3.315709
   11        3.327144
   12        3.474920
 
  0.5000000E+00  0.1388889E+00  0.0000000E+00  0.2314815E-02
    1      -20.435248
    2      -20.435248
    3      -10.344583
    4      -10.344583
    5       -8.870594
    6       -8.870594
    7       -8.236356
    8       -8.236356
    9        2.972994
   10        2.972994
   11        3.761031
   12        3.761031
 
  0.0000000E+00  0.1666667E+00  0.0000000E+00  0.2314815E-02
    1      -21.727861
    2      -16.645748
    3      -15.547673
    4      -10.911025
    5       -9.748050
    6       -7.471183
    7       -6.821773
    8       -4.559308
    9       -1.314323
   10        1.196933
   11        2.004824
   12        2.398878
 
  0.4166667E-01  0.1666667E+00  0.0000000E+00  0.4629630E-02
    1      -21.717764
    2      -16.795092
    3      -15.385491
    4      -10.899787
    5       -9.736107
    6       -7.519868
    7       -6.818566
    8       -4.630860
    9       -1.231534
   10        1.210670
   11        2.018721
   12        2.412989
 
  0.8333333E-01  0.1666667E+00  0.0000000E+00  0.4629630E-02
    1      -21.687481
    2      -17.110649
    3      -15.031627
    4      -10.866025
    5       -9.700298
    6       -7.651251
    7       -6.823263
    8       -4.826089
    9       -1.002767
   10        1.251888
   11        2.060407
   12        2.455325
 
  0.1250000E+00  0.1666667E+00  0.0000000E+00  0.4629630E-02
    1      -21.637036
    2      -17.470177
    3      -14.608950
    4      -10.809596
    5       -9.640681
    6       -7.839441
    7       -6.860467
    8       -5.104579
    9       -0.668944
   10        1.320609
   11        2.129868
   12        2.525891
 
  0.1666667E+00  0.1666667E+00  0.0000000E+00  0.4629630E-02
    1      -21.566466
    2      -17.835697
    3      -14.156536
    4      -10.730229
    5       -9.557355
    6       -8.065182
    7       -6.946640
    8       -5.430117
    9       -0.267108
   10        1.416866
   11        2.227081
   12        2.624691
 
  0.2083333E+00  0.1666667E+00  0.0000000E+00  0.4629630E-02
    1      -21.475829
    2      -18.194760
    3      -13.688467
    4      -10.627482
    5       -9.450464
    6       -8.316494
    7       -7.088897
    8       -5.778212
    9        0.177125
   10        1.540683
   11        2.352011
   12        2.751735
 
  0.2500000E+00  0.1666667E+00  0.0000000E+00  0.4629630E-02
    1      -21.365195
    2      -18.542195
    3      -13.212208
    4      -10.500666
    5       -9.320199
    6       -8.585997
    7       -7.287429
    8       -6.133655
    9        0.647175
   10        1.692070
   11        2.504609
   12        2.907028
 
  0.2916667E+00  0.1666667E+00  0.0000000E+00  0.4629630E-02
    1      -21.234658
    2      -18.875384
    3      -12.733468
    4      -10.348751
    5       -9.166805
    6       -8.869403
    7       -7.537241
    8       -6.487011
    9        1.132019
   10        1.871011
   11        2.684812
   12        3.090570
 
  0.3333333E+00  0.1666667E+00  0.0000000E+00  0.4629630E-02
    1      -21.084329
    2      -19.192791
    3      -12.257846
    4      -10.170259
    5       -9.164955
    6       -8.990591
    7       -7.829371
    8       -6.832228
    9        1.623862
   10        2.077461
   11        2.892537
   12        3.302360
 
  0.3750000E+00  0.1666667E+00  0.0000000E+00  0.4629630E-02
    1      -20.914344
    2      -19.493411
    3      -11.791491
    4       -9.963249
    5       -9.473321
    6       -8.791939
    7       -8.151830
    8       -7.165259
    9        2.116805
   10        2.311352
   11        3.127676
   12        3.542389
 
  0.4166667E+00  0.1666667E+00  0.0000000E+00  0.4629630E-02
    1      -20.724868
    2      -19.776531
    3      -11.341177
    4       -9.797560
    5       -9.725580
    6       -8.571320
    7       -8.490410
    8       -7.483282
    9        2.572592
   10        2.606109
   11        3.390086
   12        3.810647
 
  0.4583333E+00  0.1666667E+00  0.0000000E+00  0.4629630E-02
    1      -20.516093
    2      -20.041619
    3      -10.913590
    4      -10.142609
    5       -9.455855
    6       -8.829753
    7       -8.329317
    8       -7.784257
    9        2.861074
   10        3.087757
   11        3.519228
   12        3.679567
 
  0.5000000E+00  0.1666667E+00  0.0000000E+00  0.2314815E-02
    1      -20.288251
    2      -20.288251
    3      -10.513656
    4      -10.513656
    5       -9.155280
    6       -9.155280
    7       -8.066658
    8       -8.066658
    9        3.176671
   10        3.176671
   11        3.558166
   12        3.558166
 