       N       E                     dE             d eps       ncg     rms          rms(c)
DAV:   1     0.189100055205E+03    0.18910E+03   -0.10597E+04  5928   0.274E+03
DAV:   2    -0.876304352271E+01   -0.19786E+03   -0.17520E+03 10288   0.261E+02
DAV:   3    -0.383224242873E+02   -0.29559E+02   -0.28857E+02  7344   0.120E+02    0.730E+00
RMM:   4    -0.376941154195E+02    0.62831E+00   -0.96453E+00  5928   0.266E+01    0.423E+00
RMM:   5    -0.369334560524E+02    0.76066E+00   -0.28601E+00  5933   0.115E+01    0.730E-01
RMM:   6    -0.369351399383E+02   -0.16839E-02   -0.86005E-02  6361   0.203E+00    0.519E-01
RMM:   7    -0.369256611367E+02    0.94788E-02   -0.33631E-02  5943   0.160E+00    0.345E-01
RMM:   8    -0.369199310493E+02    0.57301E-02   -0.77459E-03  5932   0.583E-01    0.135E-01
RMM:   9    -0.369196603706E+02    0.27068E-03   -0.20816E-02  5928   0.855E-01    0.162E-01
RMM:  10    -0.369195316787E+02    0.12869E-03   -0.27854E-03  5929   0.380E-01    0.312E-02
RMM:  11    -0.369220551878E+02   -0.25235E-02   -0.70182E-04  5931   0.172E-01    0.453E-02
RMM:  12    -0.369225173929E+02   -0.46221E-03   -0.23193E-04  5943   0.100E-01    0.488E-03
RMM:  13    -0.369227627279E+02   -0.24533E-03   -0.50685E-05  6010   0.401E-02    0.452E-03
RMM:  14    -0.369228481291E+02   -0.85401E-04   -0.12079E-05  5934   0.200E-02    0.235E-03
RMM:  15    -0.369228554396E+02   -0.73106E-05   -0.14299E-06  6009   0.721E-03    0.773E-04
RMM:  16    -0.369228673579E+02   -0.11918E-04   -0.37738E-07  6024   0.356E-03    0.405E-04
RMM:  17    -0.369228707022E+02   -0.33443E-05   -0.26064E-08  6121   0.134E-03    0.667E-04
RMM:  18    -0.369228727641E+02   -0.20619E-05   -0.92080E-08  5928   0.205E-03    0.135E-04
RMM:  19    -0.369228730150E+02   -0.25096E-06   -0.40603E-09  5960   0.424E-04    0.176E-05
RMM:  20    -0.369228730669E+02   -0.51908E-07   -0.43927E-10  4462   0.106E-04    0.101E-05
RMM:  21    -0.369228730772E+02   -0.10255E-07   -0.93397E-11  4039   0.604E-05    0.528E-06
RMM:  22    -0.369228730777E+02   -0.55888E-09   -0.15137E-11  3876   0.447E-05    0.539E-07
RMM:  23    -0.369228730780E+02   -0.28808E-09   -0.15398E-11  3557   0.376E-05    0.113E-06
RMM:  24    -0.369228730779E+02    0.16348E-09   -0.67086E-12  3080   0.289E-05    0.672E-07
RMM:  25    -0.369228730779E+02   -0.31832E-11   -0.32585E-12  2820   0.253E-05
   1 F= -.36922873E+02 E0= -.36922827E+02  d E =-.369229E+02
       N       E                     dE             d eps       ncg     rms          rms(c)
DAV:   1    -0.369228717003E+02    0.13776E-05   -0.12540E-04  6372   0.105E-01    0.225E-03
RMM:   2    -0.369228717707E+02   -0.70400E-07   -0.20170E-06  5935   0.126E-02    0.160E-03
RMM:   3    -0.369228717089E+02    0.61748E-07   -0.35909E-07  5953   0.483E-03    0.407E-04
RMM:   4    -0.369228717025E+02    0.63694E-08   -0.22095E-08  6083   0.119E-03    0.116E-04
RMM:   5    -0.369228717032E+02   -0.63824E-09   -0.17024E-09  5871   0.295E-04    0.558E-05
RMM:   6    -0.369228717031E+02    0.34561E-10   -0.25822E-10  4163   0.130E-04
   2 F= -.36922872E+02 E0= -.36922828E+02  d E =0.137472E-05
       N       E                     dE             d eps       ncg     rms          rms(c)
DAV:   1    -0.369228731826E+02   -0.14794E-05   -0.79859E-05  6512   0.841E-02    0.180E-03
RMM:   2    -0.369228732167E+02   -0.34108E-07   -0.12487E-06  5934   0.101E-02    0.128E-03
RMM:   3    -0.369228731762E+02    0.40488E-07   -0.22595E-07  5953   0.383E-03    0.312E-04
RMM:   4    -0.369228731726E+02    0.35895E-08   -0.13420E-08  6073   0.934E-04    0.916E-05
RMM:   5    -0.369228731726E+02   -0.33197E-10   -0.11079E-09  5409   0.237E-04    0.453E-05
RMM:   6    -0.369228731726E+02   -0.45475E-12   -0.16857E-10  3871   0.107E-04
   3 F= -.36922873E+02 E0= -.36922828E+02  d E =-.146948E-05
       N       E                     dE             d eps       ncg     rms          rms(c)
DAV:   1    -0.369228731718E+02    0.85106E-09    0.57061E-09  4716   0.793E-05    0.268E-06
RMM:   2    -0.369228731727E+02   -0.96998E-09    0.76572E-13  3077   0.287E-05    0.167E-06
RMM:   3    -0.369228731727E+02    0.46612E-11   -0.36437E-12  2908   0.288E-05    0.904E-08
RMM:   4    -0.369228731727E+02    0.19440E-10   -0.15018E-12  2620   0.273E-05    0.951E-08
RMM:   5    -0.369228731726E+02    0.90722E-10   -0.49621E-12  2417   0.255E-05
   4 F= -.36922873E+02 E0= -.36922828E+02  d E =-.363798E-11
       N       E                     dE             d eps       ncg     rms          rms(c)
DAV:   1    -0.369228731722E+02    0.51318E-09    0.57458E-09  4472   0.481E-05    0.463E-07
RMM:   2    -0.369228731724E+02   -0.21669E-09   -0.14686E-13  1543   0.146E-05    0.289E-07
RMM:   3    -0.369228731726E+02   -0.16041E-09    0.39401E-13  1463   0.142E-05    0.173E-08
RMM:   4    -0.369228731729E+02   -0.27683E-09   -0.59664E-14  1407   0.141E-05    0.150E-08
RMM:   5    -0.369228731724E+02    0.43667E-09    0.99838E-14  1394   0.139E-05    0.988E-09
RMM:   6    -0.369228731726E+02   -0.18758E-09   -0.57814E-14  1376   0.139E-05    0.679E-09
RMM:   7    -0.369228731725E+02    0.92314E-10    0.32895E-15  1357   0.138E-05
   5 F= -.36922873E+02 E0= -.36922828E+02  d E =0.109935E-09
       N       E                     dE             d eps       ncg     rms          rms(c)
DAV:   1    -0.369228731720E+02    0.58697E-09    0.57694E-09  4680   0.161E-05    0.413E-07
RMM:   2    -0.369228731726E+02   -0.57878E-09    0.21547E-14  1056   0.599E-06    0.254E-07
RMM:   3    -0.369228731728E+02   -0.20032E-09   -0.48603E-14  1084   0.589E-06    0.482E-09
RMM:   4    -0.369228731725E+02    0.31355E-09    0.36678E-14  1029   0.589E-06    0.196E-09
RMM:   5    -0.369228731725E+02    0.22851E-10   -0.37994E-14   807   0.589E-06
   6 F= -.36922873E+02 E0= -.36922828E+02  d E =0.519549E-10
       N       E                     dE             d eps       ncg     rms          rms(c)
DAV:   1    -0.369228731721E+02    0.39915E-09    0.57656E-09  4756   0.231E-05    0.350E-07
RMM:   2    -0.369228731724E+02   -0.31059E-09    0.17764E-14   604   0.640E-06    0.216E-07
RMM:   3    -0.369228731729E+02   -0.45588E-09   -0.12829E-14   445   0.632E-06    0.430E-09
RMM:   4    -0.369228731726E+02    0.25602E-09    0.00000E+00   940   0.631E-06    0.200E-09
RMM:   5    -0.369228731724E+02    0.24920E-09    0.00000E+00   446   0.631E-06    0.406E-10
RMM:   6    -0.369228731724E+02   -0.52296E-11    0.00000E+00   299   0.631E-06
   7 F= -.36922873E+02 E0= -.36922828E+02  d E =0.109821E-09
       N       E                     dE             d eps       ncg     rms          rms(c)
DAV:   1    -0.369228731721E+02    0.29013E-09    0.57569E-09  3636   0.316E-05    0.536E-07
RMM:   2    -0.369228731723E+02   -0.28183E-09    0.00000E+00   579   0.833E-06    0.332E-07
RMM:   3    -0.369228731727E+02   -0.38597E-09    0.00000E+00   536   0.810E-06    0.711E-09
RMM:   4    -0.369228731724E+02    0.36846E-09    0.00000E+00   532   0.810E-06    0.267E-09
RMM:   5    -0.369228731725E+02   -0.10152E-09    0.00000E+00   621   0.810E-06    0.222E-10
RMM:   6    -0.369228731725E+02   -0.63437E-10    0.00000E+00   325   0.810E-06
   8 F= -.36922873E+02 E0= -.36922828E+02  d E =-.168939E-09
