    4    4  400    1
  0.5270948E+02  0.4293982E-09  0.2465041E-09  0.1991885E-08  0.5000000E-15
  1.000000000000000E-004
  CAR 
 gr                                      
     16    247     12
 
  0.0000000E+00  0.0000000E+00  0.0000000E+00  0.1157407E-02
    1      -22.220135
    2      -17.068952
    3      -15.947140
    4      -10.333055
    5       -9.087700
    6       -5.830363
    7       -5.774144
    8       -5.155836
    9       -1.097842
   10        0.527844
   11        1.328384
   12        1.713304
 
  0.4166667E-01  0.0000000E+00  0.0000000E+00  0.2314815E-02
    1      -22.209984
    2      -17.223004
    3      -15.777879
    4      -10.320943
    5       -9.077660
    6       -5.873433
    7       -5.796214
    8       -5.220753
    9       -1.016979
   10        0.541607
   11        1.342331
   12        1.727422
 
  0.8333333E-01  0.0000000E+00  0.0000000E+00  0.2314815E-02
    1      -22.179533
    2      -17.546926
    3      -15.408408
    4      -10.284625
    5       -9.047591
    6       -6.000810
    7       -5.861216
    8       -5.401196
    9       -0.788869
   10        0.582896
   11        1.384167
   12        1.769774
 
  0.1250000E+00  0.0000000E+00  0.0000000E+00  0.2314815E-02
    1      -22.128804
    2      -17.914494
    3      -14.965206
    4      -10.224158
    5       -8.997647
    6       -6.207328
    7       -5.965730
    8       -5.665119
    9       -0.446063
   10        0.651721
   11        1.453881
   12        1.840356
 
  0.1666667E+00  0.0000000E+00  0.0000000E+00  0.2314815E-02
    1      -22.057829
    2      -18.287106
    3      -14.487306
    4      -10.139640
    5       -8.928089
    6       -6.485307
    7       -6.104656
    8       -5.980431
    9       -0.021509
   10        0.748091
   11        1.551450
   12        1.939667
 
  0.2083333E+00  0.0000000E+00  0.0000000E+00  0.2314815E-02
    1      -21.966659
    2      -18.652315
    3      -13.987779
    4      -10.031212
    5       -8.839295
    6       -6.825615
    7       -6.322997
    8       -6.271897
    9        0.459425
   10        0.872006
   11        1.676836
   12        2.066255
 
  0.2500000E+00  0.0000000E+00  0.0000000E+00  0.2314815E-02
    1      -21.855356
    2      -19.005047
    3      -13.472519
    4       -9.899065
    5       -8.731769
    6       -7.218647
    7       -6.676597
    8       -6.461005
    9        1.022425
   10        1.021525
   11        1.830697
   12        2.222735
 
  0.2916667E+00  0.0000000E+00  0.0000000E+00  0.2314815E-02
    1      -21.724001
    2      -19.342799
    3      -12.945084
    4       -9.743442
    5       -8.606164
    6       -7.655057
    7       -7.030641
    8       -6.665697
    9        1.202424
   10        1.524082
   11        2.010824
   12        2.405094
 
  0.3333333E+00  0.0000000E+00  0.0000000E+00  0.2314815E-02
    1      -21.572692
    2      -19.664137
    3      -12.408215
    4       -9.564656
    5       -8.463294
    6       -8.126219
    7       -7.378154
    8       -6.880171
    9        1.408869
   10        2.085182
   11        2.219207
   12        2.616856
 
  0.3750000E+00  0.0000000E+00  0.0000000E+00  0.2314815E-02
    1      -21.401545
    2      -19.968146
    3      -11.864431
    4       -9.363097
    5       -8.624431
    6       -8.304167
    7       -7.714423
    8       -7.099273
    9        1.642741
   10        2.454902
   11        2.654582
   12        2.857713
 
  0.4166667E+00  0.0000000E+00  0.0000000E+00  0.2314815E-02
    1      -21.210698
    2      -20.254190
    3      -11.316315
    4       -9.142976
    5       -9.139255
    6       -8.130020
    7       -8.036173
    8       -7.318543
    9        1.903980
   10        2.717485
   11        3.125310
   12        3.219796
 
  0.4583333E+00  0.0000000E+00  0.0000000E+00  0.2314815E-02
    1      -21.000317
    2      -20.521797
    3      -10.766681
    4       -9.676058
    5       -8.893745
    6       -8.341056
    7       -7.942359
    8       -7.534185
    9        2.192472
   10        2.850652
   11        3.005660
   12        3.422257
 
  0.5000000E+00  0.0000000E+00  0.0000000E+00  0.1157407E-02
    1      -20.770603
    2      -20.770603
    3      -10.218710
    4      -10.218710
    5       -8.627346
    6       -8.627346
    7       -7.743011
    8       -7.743011
    9        2.508085
   10        2.508086
   11        3.314011
   12        4.123552
 
  0.0000000E+00  0.2777778E-01  0.0000000E+00  0.2314815E-02
    1      -22.206436
    2      -17.057172
    3      -15.935510
    4      -10.316710
    5       -9.149636
    6       -5.859726
    7       -5.831412
    8       -5.139192
    9       -1.101473
   10        0.546423
   11        1.347195
   12        1.732398
 
  0.4166667E-01  0.2777778E-01  0.0000000E+00  0.4629630E-02
    1      -22.196285
    2      -17.211065
    3      -15.766457
    4      -10.304602
    5       -9.139580
    6       -5.910781
    7       -5.844835
    8       -5.204248
    9       -1.020587
   10        0.560186
   11        1.361141
   12        1.746460
 
  0.8333333E-01  0.2777778E-01  0.0000000E+00  0.4629630E-02
    1      -22.165839
    2      -17.534734
    3      -15.397390
    4      -10.268296
    5       -9.109464
    6       -6.042534
    7       -5.903599
    8       -5.385011
    9       -0.792502
   10        0.601477
   11        1.402975
   12        1.788828
 
  0.1250000E+00  0.2777778E-01  0.0000000E+00  0.4629630E-02
    1      -22.115117
    2      -17.902076
    3      -14.954671
    4      -10.207850
    5       -9.059436
    6       -6.247865
    7       -6.006546
    8       -5.649266
    9       -0.449942
   10        0.670305
   11        1.472684
   12        1.859397
 
  0.1666667E+00  0.2777778E-01  0.0000000E+00  0.4629630E-02
    1      -22.044153
    2      -18.274495
    3      -14.477337
    4      -10.123361
    5       -8.989753
    6       -6.521720
    7       -6.146334
    8       -5.964826
    9       -0.025951
   10        0.766679
   11        1.570247
   12        1.958229
 
  0.2083333E+00  0.2777778E-01  0.0000000E+00  0.4629630E-02
    1      -21.952998
    2      -18.639540
    3      -13.978474
    4      -10.014971
    5       -8.900784
    6       -6.856621
    7       -6.315568
    8       -6.307538
    9        0.454083
   10        0.890602
   11        1.695627
   12        4.243142
 
  0.2500000E+00  0.2777778E-01  0.0000000E+00  0.4629630E-02
    1      -21.841713
    2      -18.992132
    3      -13.464000
    4       -9.882869
    5       -8.793024
    6       -7.243924
    7       -6.661198
    8       -6.507105
    9        0.972316
   10        1.042062
   11        1.848772
   12        2.240585
 
  0.2916667E+00  0.2777778E-01  0.0000000E+00  0.4629630E-02
    1      -21.710380
    2      -19.329763
    3      -12.937498
    4       -9.727300
    5       -8.667108
    6       -7.674827
    7       -7.015242
    8       -6.714277
    9        1.221039
   10        1.526521
   11        2.029605
   12        2.424957
 
  0.3333333E+00  0.2777778E-01  0.0000000E+00  0.4629630E-02
    1      -21.559098
    2      -19.650996
    3      -12.401740
    4       -9.548575
    5       -8.523836
    6       -8.140975
    7       -7.362712
    8       -6.931078
    9        1.427497
   10        2.102943
   11        2.237546
   12        2.636451
 
  0.3750000E+00  0.2777778E-01  0.0000000E+00  0.4629630E-02
    1      -21.387981
    2      -19.954916
    3      -11.859284
    4       -9.347085
    5       -8.634778
    6       -8.364194
    7       -7.698915
    8       -7.152257
    9        1.661382
   10        2.473675
   11        2.645499
   12        2.925350
 
  0.4166667E+00  0.2777778E-01  0.0000000E+00  0.4629630E-02
    1      -21.197171
    2      -20.240882
    3      -11.312754
    4       -9.149526
    5       -9.123319
    6       -8.189393
    7       -8.020583
    8       -7.373319
    9        1.922632
   10        2.736410
   11        3.145453
   12        3.238616
 
  0.4583333E+00  0.2777778E-01  0.0000000E+00  0.4629630E-02
    1      -20.986833
    2      -20.508421
    3      -10.765021
    4       -9.679385
    5       -8.877892
    6       -8.325378
    7       -8.000912
    8       -7.590472
    9        2.211143
   10        2.869415
   11        3.024315
   12        3.471080
 
  0.5000000E+00  0.2777778E-01  0.0000000E+00  0.2314815E-02
    1      -20.757170
    2      -20.757170
    3      -10.219323
    4      -10.219323
    5       -8.611579
    6       -8.611579
    7       -7.800546
    8       -7.800546
    9        2.526791
   10        2.526795
   11        3.332335
   12        3.332842
 
  0.0000000E+00  0.5555556E-01  0.0000000E+00  0.2314815E-02
    1      -22.165348
    2      -17.021832
    3      -15.900769
    4      -10.267710
    5       -9.330475
    6       -5.998627
    7       -5.947156
    8       -5.089281
    9       -1.113194
   10        0.602163
   11        1.403621
   12        1.789488
 
  0.4166667E-01  0.5555556E-01  0.0000000E+00  0.4629630E-02
    1      -22.155201
    2      -17.175260
    3      -15.732334
    4      -10.255614
    5       -9.320368
    6       -6.051773
    7       -5.956553
    8       -5.154766
    9       -1.032229
   10        0.615926
   11        1.417564
   12        1.803585
 
  0.8333333E-01  0.5555556E-01  0.0000000E+00  0.4629630E-02
    1      -22.124768
    2      -17.498177
    3      -15.364485
    4      -10.219346
    5       -9.290092
    6       -6.183690
    7       -6.009680
    8       -5.336515
    9       -0.804215
   10        0.657219
   11        1.459391
   12        3.280843
 
  0.1250000E+00  0.5555556E-01  0.0000000E+00  0.4629630E-02
    1      -22.074069
    2      -17.864844
    3      -14.923234
    4      -10.158963
    5       -9.239788
    6       -6.381623
    7       -6.111889
    8       -5.601788
    9       -0.462400
   10        0.726054
   11        1.529087
   12        1.916539
 
  0.1666667E+00  0.5555556E-01  0.0000000E+00  0.4629630E-02
    1      -22.003138
    2      -18.236685
    3      -14.447627
    4      -10.074562
    5       -9.169692
    6       -6.641555
    7       -6.255925
    8       -5.918104
    9       -0.040129
   10        0.822439
   11        1.626633
   12        2.015352
 
  0.2083333E+00  0.5555556E-01  0.0000000E+00  0.4629630E-02
    1      -21.912025
    2      -18.601236
    3      -13.950803
    4       -9.966285
    5       -9.080148
    6       -6.958817
    7       -6.432631
    8       -6.261257
    9        0.437283
   10        0.946377
   11        1.751992
   12        2.142427
 
  0.2500000E+00  0.5555556E-01  0.0000000E+00  0.4629630E-02
    1      -21.800794
    2      -18.953404
    3      -13.438749
    4       -9.834321
    5       -8.971612
    6       -7.327376
    7       -6.633043
    8       -6.615098
    9        0.951681
   10        1.097860
   11        1.905112
   12        2.297723
 
  0.2916667E+00  0.5555556E-01  0.0000000E+00  0.4629630E-02
    1      -21.669529
    2      -19.290670
    3      -12.915131
    4       -9.678915
    5       -8.844674
    6       -7.740220
    7       -6.969134
    8       -6.849187
    9        1.276863
   10        1.490874
   11        2.085917
   12        2.481382
 
  0.3333333E+00  0.5555556E-01  0.0000000E+00  0.4629630E-02
    1      -21.518326
    2      -19.611590
    3      -12.382821
    4       -9.500377
    5       -8.700073
    6       -8.189969
    7       -7.316473
    8       -7.074308
    9        1.483350
   10        2.045977
   11        2.294280
   12        2.693047
 
  0.3750000E+00  0.5555556E-01  0.0000000E+00  0.4629630E-02
    1      -21.347304
    2      -19.915238
    3      -11.844500
    4       -9.299098
    5       -8.669420
    6       -8.538725
    7       -7.652468
    8       -7.302806
    9        1.717275
   10        2.529982
   11        2.878113
   12        3.678030
 
  0.4166667E+00  0.5555556E-01  0.0000000E+00  0.4629630E-02
    1      -21.156603
    2      -20.200971
    3      -11.302942
    4       -9.171895
    5       -9.075565
    6       -8.361753
    7       -7.973886
    8       -7.530096
    9        1.978566
   10        2.792551
   11        3.197533
   12        3.294591
 
  0.4583333E+00  0.5555556E-01  0.0000000E+00  0.4629630E-02
    1      -20.946394
    2      -20.468308
    3      -10.761192
    4       -9.691406
    5       -8.830389
    6       -8.278413
    7       -8.170533
    8       -7.752429
    9        2.267119
   10        2.925534
   11        3.081305
   12        3.506637
 
  0.5000000E+00  0.5555556E-01  0.0000000E+00  0.2314815E-02
    1      -20.716881
    2      -20.716881
    3      -10.222694
    4      -10.222694
    5       -8.564342
    6       -8.564342
    7       -7.966742
    8       -7.966742
    9        2.582827
   10        2.582829
   11        3.388692
   12        3.390402
 
  0.0000000E+00  0.8333333E-01  0.0000000E+00  0.2314815E-02
    1      -22.096906
    2      -16.962947
    3      -15.843392
    4      -10.186157
    5       -9.616692
    6       -6.263416
    7       -6.090707
    8       -5.006163
    9       -1.135486
   10        0.695072
   11        1.497640
   12        1.884671
 
  0.4166667E-01  0.8333333E-01  0.0000000E+00  0.4629630E-02
    1      -22.086767
    2      -17.115630
    3      -15.675971
    4      -10.174083
    5       -9.606482
    6       -6.310266
    7       -6.103313
    8       -5.072407
    9       -1.054368
   10        0.708835
   11        1.511579
   12        1.898846
 
  0.8333333E-01  0.8333333E-01  0.0000000E+00  0.4629630E-02
    1      -22.056356
    2      -17.437318
    3      -15.310168
    4      -10.137879
    5       -9.575890
    6       -6.436436
    7       -6.153426
    8       -5.255890
    9       -0.826438
   10        0.750127
   11        1.553391
   12        1.941245
 
  0.1250000E+00  0.8333333E-01  0.0000000E+00  0.4629630E-02
    1      -22.005696
    2      -17.802865
    3      -14.871435
    4      -10.077604
    5       -9.525035
    6       -6.624414
    7       -6.252481
    8       -5.522937
    9       -0.485888
   10        0.818963
   11        1.623064
   12        2.011730
 
  0.1666667E+00  0.8333333E-01  0.0000000E+00  0.4629630E-02
    1      -21.934820
    2      -18.173741
    3      -14.398822
    4       -9.993353
    5       -9.454117
    6       -6.865610
    7       -6.399516
    8       -5.840554
    9       -0.066583
   10        0.915354
   11        1.720576
   12        2.110562
 
  0.2083333E+00  0.8333333E-01  0.0000000E+00  0.4629630E-02
    1      -21.843779
    2      -18.537464
    3      -13.905565
    4       -9.885270
    5       -9.363426
    6       -7.155764
    7       -6.586640
    8       -6.184456
    9        0.405962
   10        1.039306
   11        1.845895
   12        2.237628
 
  0.2500000E+00  0.8333333E-01  0.0000000E+00  0.4629630E-02
    1      -21.732639
    2      -18.888921
    3      -13.397777
    4       -9.753543
    5       -9.253344
    6       -7.492088
    7       -6.802951
    8       -6.538591
    9        0.914093
   10        1.190809
   11        1.998971
   12        2.392960
 
  0.2916667E+00  0.8333333E-01  0.0000000E+00  0.4629630E-02
    1      -21.601484
    2      -19.225576
    3      -12.879284
    4       -9.598417
    5       -9.124364
    6       -7.871513
    7       -7.037370
    8       -6.892600
    9        1.369841
   10        1.445443
   11        2.179732
   12        2.576519
 
  0.3333333E+00  0.8333333E-01  0.0000000E+00  0.4629630E-02
    1      -21.450414
    2      -19.545968
    3      -12.353159
    4       -9.420202
    5       -8.977099
    6       -8.289733
    7       -7.280484
    8       -7.239701
    9        1.576362
   10        1.990743
   11        2.388058
   12        2.788323
 
  0.3750000E+00  0.8333333E-01  0.0000000E+00  0.4629630E-02
    1      -21.279549
    2      -19.849161
    3      -11.822327
    4       -9.219286
    5       -8.812305
    6       -8.741220
    7       -7.575328
    8       -7.525132
    9        1.810374
   10        2.623739
   11        3.003855
   12        3.661525
 
  0.4166667E+00  0.8333333E-01  0.0000000E+00  0.4629630E-02
    1      -21.089033
    2      -20.134501
    3      -11.289869
    4       -9.219821
    5       -8.996154
    6       -8.630906
    7       -7.896308
    8       -7.766125
    9        2.071642
   10        2.886379
   11        3.091394
   12        3.379467
 
  0.4583333E+00  0.8333333E-01  0.0000000E+00  0.4629630E-02
    1      -20.879041
    2      -20.401499
    3      -10.759202
    4       -9.719392
    5       -8.751411
    6       -8.434030
    7       -8.200366
    8       -7.999701
    9        2.360252
   10        3.018908
   11        3.174700
   12        3.626324
 
  0.5000000E+00  0.8333333E-01  0.0000000E+00  0.2314815E-02
    1      -20.649780
    2      -20.649780
    3      -10.234221
    4      -10.234221
    5       -8.485823
    6       -8.485823
    7       -8.223057
    8       -8.223057
    9        2.676018
   10        2.676023
   11        3.482068
   12        3.483790
 
  0.0000000E+00  0.1111111E+00  0.0000000E+00  0.2314815E-02
    1      -22.001172
    2      -16.880535
    3      -15.764277
    4      -10.072226
    5       -9.989451
    6       -6.608883
    7       -6.287228
    8       -4.889944
    9       -1.172458
   10        0.825162
   11        1.629216
   12        2.017966
 
  0.4166667E-01  0.1111111E+00  0.0000000E+00  0.4629630E-02
    1      -21.991044
    2      -17.032245
    3      -15.598241
    4      -10.060183
    5       -9.979058
    6       -6.655041
    7       -6.296489
    8       -4.957352
    9       -1.091062
   10        0.838920
   11        1.643146
   12        2.032081
 
  0.8333333E-01  0.1111111E+00  0.0000000E+00  0.4629630E-02
    1      -21.960666
    2      -17.352270
    3      -15.235351
    4      -10.024073
    5       -9.947906
    6       -6.780317
    7       -6.335971
    8       -5.143468
    9       -0.863163
   10        0.880203
   11        1.684935
   12        2.074429
 
  0.1250000E+00  0.1111111E+00  0.0000000E+00  0.4629630E-02
    1      -21.910058
    2      -17.716260
    3      -14.800316
    4       -9.963955
    5       -9.896074
    6       -6.964151
    7       -6.421741
    8       -5.413169
    9       -0.524407
   10        0.949026
   11        1.754568
   12        2.145063
 
  0.1666667E+00  0.1111111E+00  0.0000000E+00  0.4629630E-02
    1      -21.839259
    2      -18.085779
    3      -14.332186
    4       -9.879925
    5       -9.823695
    6       -7.193319
    7       -6.559615
    8       -5.732699
    9       -0.109425
   10        1.045406
   11        1.852027
   12        2.243846
 
  0.2083333E+00  0.1111111E+00  0.0000000E+00  0.4629630E-02
    1      -21.748320
    2      -18.448331
    3      -13.844347
    4       -9.772125
    5       -9.730955
    6       -7.460701
    7       -6.746729
    8       -6.077674
    9        0.356175
   10        1.169353
   11        1.977278
   12        2.370921
 
  0.2500000E+00  0.1111111E+00  0.0000000E+00  0.4629630E-02
    1      -21.637309
    2      -18.798782
    3      -13.343130
    4       -9.640745
    5       -9.618097
    6       -7.763115
    7       -6.974374
    8       -6.432208
    9        0.854941
   10        1.320861
   11        2.130275
   12        2.526238
 
  0.2916667E+00  0.1111111E+00  0.0000000E+00  0.4629630E-02
    1      -21.506309
    2      -19.134569
    3      -12.832645
    4       -9.486030
    5       -9.485416
    6       -8.099945
    7       -7.230241
    8       -6.786141
    9        1.374915
   10        1.499906
   11        2.310953
   12        2.709805
 
  0.3333333E+00  0.1111111E+00  0.0000000E+00  0.4629630E-02
    1      -21.355425
    2      -19.454215
    3      -12.316332
    4       -9.333266
    5       -9.308289
    6       -8.471565
    7       -7.500906
    8       -7.132862
    9        1.706446
   10        1.906890
   11        2.519209
   12        2.921613
 
  0.3750000E+00  0.1111111E+00  0.0000000E+00  0.4629630E-02
    1      -21.184781
    2      -19.756764
    3      -11.797592
    4       -9.162057
    5       -9.107906
    6       -8.877489
    7       -7.774397
    8       -7.467925
    9        1.940423
   10        2.444022
   11        2.754873
   12        3.161733
 
  0.4166667E+00  0.1111111E+00  0.0000000E+00  0.4629630E-02
    1      -20.994526
    2      -20.041548
    3      -11.280105
    4       -9.315148
    5       -8.972262
    6       -8.885364
    7       -8.041897
    8       -7.788244
    9        2.201888
   10        3.017525
   11        3.413907
   12        3.510172
 
  0.4583333E+00  0.1111111E+00  0.0000000E+00  0.4629630E-02
    1      -20.784839
    2      -20.308067
    3      -10.768044
    4       -9.779945
    5       -8.764445
    6       -8.641261
    7       -8.297900
    8       -8.091600
    9        2.490392
   10        3.149095
   11        3.306471
   12        3.746798
 
  0.5000000E+00  0.1111111E+00  0.0000000E+00  0.2314815E-02
    1      -20.555934
    2      -20.555934
    3      -10.266188
    4      -10.266188
    5       -8.539317
    6       -8.539317
    7       -8.376354
    8       -8.376354
    9        2.806176
   10        2.806190
   11        3.612318
   12        3.619922
 
  0.0000000E+00  0.1388889E+00  0.0000000E+00  0.2314815E-02
    1      -21.878234
    2      -16.774626
    3      -15.664947
    4      -10.427968
    5       -9.926166
    6       -7.017044
    7       -6.532522
    8       -4.740771
    9       -1.229741
   10        0.992434
   11        1.798289
   12        2.189372
 
  0.4166667E-01  0.1388889E+00  0.0000000E+00  0.4629630E-02
    1      -21.868119
    2      -16.925215
    3      -15.500632
    4      -10.417263
    5       -9.914166
    6       -7.064112
    7       -6.536128
    8       -4.809881
    9       -1.147848
   10        1.006184
   11        1.812207
   12        2.203472
 
  0.8333333E-01  0.1388889E+00  0.0000000E+00  0.4629630E-02
    1      -21.837782
    2      -17.243208
    3      -15.141609
    4      -10.385152
    5       -9.878185
    6       -7.191612
    7       -6.559747
    8       -4.999788
    9       -0.919765
   10        1.047444
   11        1.853958
   12        2.245807
 
  0.1250000E+00  0.1388889E+00  0.0000000E+00  0.4629630E-02
    1      -21.787244
    2      -17.605218
    3      -14.711718
    4      -10.331639
    5       -9.818280
    6       -7.376226
    7       -6.623861
    8       -5.273222
    9       -0.583289
   10        1.116233
   11        1.923530
   12        2.316396
 
  0.1666667E+00  0.1388889E+00  0.0000000E+00  0.4629630E-02
    1      -21.716546
    2      -17.972979
    3      -14.249999
    4      -10.256728
    5       -9.734550
    6       -7.601272
    7       -6.740067
    8       -5.595370
    9       -0.174101
   10        1.212574
   11        2.020900
   12        2.415219
 
  0.2083333E+00  0.1388889E+00  0.0000000E+00  0.4629630E-02
    1      -21.625738
    2      -18.334003
    3      -13.770083
    4      -10.160403
    5       -9.627138
    6       -7.856726
    7       -6.910907
    8       -5.941760
    9        0.282128
   10        1.336484
   11        2.146037
   12        2.542282
 
  0.2500000E+00  0.1388889E+00  0.0000000E+00  0.4629630E-02
    1      -21.514891
    2      -18.683137
    3      -13.278685
    4      -10.042615
    5       -9.496232
    6       -8.136959
    7       -7.132324
    8       -6.296767
    9        0.768272
   10        1.487964
   11        2.298899
   12        2.697625
 
  0.2916667E+00  0.1388889E+00  0.0000000E+00  0.4629630E-02
    1      -21.384093
    2      -19.017789
    3      -12.780445
    4       -9.903251
    5       -9.342079
    6       -8.439654
    7       -7.395341
    8       -6.650529
    9        1.272683
   10        1.666990
   11        2.479426
   12        2.881350
 
  0.3333333E+00  0.1388889E+00  0.0000000E+00  0.4629630E-02
    1      -21.233450
    2      -19.336458
    3      -12.279517
    4       -9.742093
    5       -9.164986
    6       -8.765292
    7       -7.687413
    8       -6.996668
    9        1.786947
   10        1.873518
   11        2.687530
   12        3.093142
 
  0.3750000E+00  0.1388889E+00  0.0000000E+00  0.4629630E-02
    1      -21.063093
    2      -19.638165
    3      -11.780240
    4       -9.558786
    5       -9.116422
    6       -8.965336
    7       -7.993963
    8       -7.330912
    9        2.107486
   10        2.305252
   11        2.923208
   12        3.334363
 
  0.4166667E+00  0.1388889E+00  0.0000000E+00  0.4629630E-02
    1      -20.873177
    2      -19.922223
    3      -11.287492
    4       -9.496148
    5       -9.352816
    6       -8.743607
    7       -8.300540
    8       -7.650288
    9        2.368813
   10        2.833271
   11        3.185895
   12        3.660563
 
  0.4583333E+00  0.1388889E+00  0.0000000E+00  0.4629630E-02
    1      -20.663887
    2      -20.188117
    3      -10.806837
    4       -9.905983
    5       -9.123600
    6       -8.595333
    7       -8.500390
    8       -7.952656
    9        2.657408
   10        3.316140
   11        3.474007
   12        3.955312
 
  0.5000000E+00  0.1388889E+00  0.0000000E+00  0.2314815E-02
    1      -20.435446
    2      -20.435446
    3      -10.344360
    4      -10.344360
    5       -8.870830
    6       -8.870830
    7       -8.236427
    8       -8.236427
    9        2.973160
   10        2.973194
   11        3.783753
   12        3.787246
 
  0.0000000E+00  0.1666667E+00  0.0000000E+00  0.2314815E-02
    1      -21.728209
    2      -16.645260
    3      -15.547955
    4      -10.911660
    5       -9.748316
    6       -7.471194
    7       -6.821554
    8       -4.558842
    9       -1.314216
   10        1.196878
   11        2.004780
   12        2.399719
 
  0.4166667E-01  0.1666667E+00  0.0000000E+00  0.4629630E-02
    1      -21.718111
    2      -16.794709
    3      -15.385668
    4      -10.900420
    5       -9.736372
    6       -7.519889
    7       -6.818336
    8       -4.630415
    9       -1.231409
   10        1.210616
   11        2.018678
   12        2.412981
 
  0.8333333E-01  0.1666667E+00  0.0000000E+00  0.4629630E-02
    1      -21.687825
    2      -17.110399
    3      -15.031673
    4      -10.866651
    5       -9.700559
    6       -7.651298
    7       -6.823006
    8       -4.825692
    9       -1.002596
   10        1.251838
   11        2.060368
   12        2.455340
 
  0.1250000E+00  0.1666667E+00  0.0000000E+00  0.4629630E-02
    1      -21.637374
    2      -17.470018
    3      -14.608908
    4      -10.810209
    5       -9.640935
    6       -7.839519
    7       -6.860175
    8       -5.104242
    9       -0.668718
   10        1.320567
   11        2.129837
   12        2.525863
 
  0.1666667E+00  0.1666667E+00  0.0000000E+00  0.4629630E-02
    1      -21.566798
    2      -17.835605
    3      -14.156431
    4      -10.730825
    5       -9.557600
    6       -8.065291
    7       -6.946316
    8       -5.429840
    9       -0.266830
   10        1.416833
   11        2.227059
   12        2.624664
 
  0.2083333E+00  0.1666667E+00  0.0000000E+00  0.4629630E-02
    1      -21.476151
    2      -18.194721
    3      -13.688317
    4      -10.628053
    5       -9.450697
    6       -8.316631
    7       -7.088550
    8       -5.777991
    9        0.177451
   10        1.540663
   11        2.352002
   12        2.751728
 
  0.2500000E+00  0.1666667E+00  0.0000000E+00  0.4629630E-02
    1      -21.365506
    2      -18.542202
    3      -13.212026
    4      -10.501204
    5       -9.320417
    6       -8.586154
    7       -7.287070
    8       -6.133487
    9        0.647541
   10        1.692066
   11        2.504615
   12        2.917059
 
  0.2916667E+00  0.1666667E+00  0.0000000E+00  0.4629630E-02
    1      -21.234956
    2      -18.875432
    3      -12.733265
    4      -10.349246
    5       -9.167006
    6       -8.869571
    7       -7.536888
    8       -6.486892
    9        1.132582
   10        1.871025
   11        2.684837
   12        3.090724
 
  0.3333333E+00  0.1666667E+00  0.0000000E+00  0.4629630E-02
    1      -21.084612
    2      -19.192875
    3      -12.257638
    4      -10.170698
    5       -9.165121
    6       -8.990773
    7       -7.829045
    8       -6.832154
    9        1.624294
   10        2.077497
   11        2.892584
   12        4.380729
 
  0.3750000E+00  0.1666667E+00  0.0000000E+00  0.4629630E-02
    1      -20.914610
    2      -19.493528
    3      -11.791297
    4       -9.963614
    5       -9.473466
    6       -8.792098
    7       -8.151555
    8       -7.165226
    9        2.117259
   10        2.311412
   11        3.127759
   12        3.542451
 
  0.4166667E+00  0.1666667E+00  0.0000000E+00  0.4629630E-02
    1      -20.725115
    2      -19.776679
    3      -11.341017
    4       -9.797665
    5       -9.725852
    6       -8.571453
    7       -8.490215
    8       -7.483288
    9        2.572687
   10        2.606689
   11        3.390336
   12        3.892192
 
  0.4583333E+00  0.1666667E+00  0.0000000E+00  0.4629630E-02
    1      -20.516318
    2      -20.041795
    3      -10.913488
    4      -10.142652
    5       -9.456013
    6       -8.829664
    7       -8.329423
    8       -7.784299
    9        2.861194
   10        3.094376
   11        3.519653
   12        3.679808
 
  0.5000000E+00  0.1666667E+00  0.0000000E+00  0.2314815E-02
    1      -20.288453
    2      -20.288453
    3      -10.513626
    4      -10.513626
    5       -9.155313
    6       -9.155313
    7       -8.066734
    8       -8.066734
    9        3.176818
   10        3.177136
   11        3.575755
   12        3.976215
 