gr                                      
           1
     4.293982    0.000000    0.000000
     0.000000    2.465041    0.000000
     0.000000    0.000000   19.918852
   C 
   4
Direct configuration=     1
   0.99988014  0.00000000  0.00000000
   0.16678653  0.50000000  0.00000000
   0.49988014  0.50000000  0.00000000
   0.66678653  0.00000000  0.00000000
