    4    4  400    1
  0.5270948E+02  0.4402320E-09  0.2455360E-09  0.1950526E-08  0.5000000E-15
  1.000000000000000E-004
  CAR 
 gr                                      
     16    247     12
 
  0.0000000E+00  0.0000000E+00  0.0000000E+00  0.1157407E-02
    1      -22.044658
    2      -17.303477
    3      -15.800255
    4      -10.197614
    5       -8.735266
    6       -6.047604
    7       -5.717496
    8       -5.380552
    9       -1.205566
   10        0.549264
   11        1.346611
   12        1.742417
 
  0.4166667E-01  0.0000000E+00  0.0000000E+00  0.2314815E-02
    1      -22.034999
    2      -17.414300
    3      -15.674511
    4      -10.186170
    5       -8.725972
    6       -6.092207
    7       -5.737061
    8       -5.437723
    9       -1.132751
   10        0.562319
   11        1.359862
   12        1.755837
 
  0.8333333E-01  0.0000000E+00  0.0000000E+00  0.2314815E-02
    1      -22.006029
    2      -17.675785
    3      -15.368339
    4      -10.151857
    5       -8.698140
    6       -6.223828
    7       -5.794754
    8       -5.597971
    9       -0.925727
   10        0.601494
   11        1.399612
   12        1.796098
 
  0.1250000E+00  0.0000000E+00  0.0000000E+00  0.2314815E-02
    1      -21.957766
    2      -17.996525
    3      -14.973364
    4      -10.094734
    5       -8.651922
    6       -6.436335
    7       -5.887719
    8       -5.835225
    9       -0.611031
   10        0.666815
   11        1.465845
   12        1.863206
 
  0.1666667E+00  0.0000000E+00  0.0000000E+00  0.2314815E-02
    1      -21.890248
    2      -18.333990
    3      -14.532501
    4      -10.014899
    5       -8.587579
    6       -6.720802
    7       -6.121999
    8       -6.011654
    9       -0.216936
   10        0.758310
   11        1.558531
   12        1.957166
 
  0.2083333E+00  0.0000000E+00  0.0000000E+00  0.2314815E-02
    1      -21.803525
    2      -18.671004
    3      -14.063469
    4       -9.912495
    5       -8.505482
    6       -7.066868
    7       -6.436508
    8       -6.161359
    9        0.233625
   10        0.876001
   11        1.677627
   12        2.077982
 
  0.2500000E+00  0.0000000E+00  0.0000000E+00  0.2314815E-02
    1      -21.697663
    2      -18.999906
    3      -13.574658
    4       -9.787715
    5       -8.406132
    6       -7.463941
    7       -6.763456
    8       -6.331256
    9        0.723815
   10        1.019891
   11        1.823060
   12        2.225656
 
  0.2916667E+00  0.0000000E+00  0.0000000E+00  0.2314815E-02
    1      -21.572750
    2      -19.316812
    3      -13.070880
    4       -9.640806
    5       -8.290169
    6       -7.902016
    7       -7.092528
    8       -6.515824
    9        1.189969
   10        1.241277
   11        1.994716
   12        2.400187
 
  0.3333333E+00  0.0000000E+00  0.0000000E+00  0.2314815E-02
    1      -21.428890
    2      -19.619528
    3      -12.555495
    4       -9.472087
    5       -8.372115
    6       -8.158393
    7       -7.416774
    8       -6.709889
    9        1.386204
   10        1.776273
   11        2.192397
   12        2.601571
 
  0.3750000E+00  0.0000000E+00  0.0000000E+00  0.2314815E-02
    1      -21.266209
    2      -19.906690
    3      -12.031298
    4       -9.281957
    5       -8.866437
    6       -8.011790
    7       -7.731429
    8       -6.908788
    9        1.608549
   10        2.319685
   11        2.415724
   12        2.829800
 
  0.4166667E+00  0.0000000E+00  0.0000000E+00  0.2314815E-02
    1      -21.084865
    2      -20.177387
    3      -11.500943
    4       -9.378319
    5       -9.070915
    6       -8.033150
    7       -7.851565
    8       -7.108431
    9        1.856941
   10        2.663836
   11        2.857828
   12        3.085012
 
  0.4583333E+00  0.0000000E+00  0.0000000E+00  0.2314815E-02
    1      -20.885046
    2      -20.430977
    3      -10.967194
    4       -9.902126
    5       -8.839591
    6       -8.319528
    7       -7.679176
    8       -7.305292
    9        2.131294
   10        2.757392
   11        2.934146
   12        3.310029
 
  0.5000000E+00  0.0000000E+00  0.0000000E+00  0.1157407E-02
    1      -20.666986
    2      -20.666986
    3      -10.433098
    4      -10.433098
    5       -8.588787
    6       -8.588787
    7       -7.496381
    8       -7.496381
    9        2.431496
   10        2.431496
   11        3.213484
   12        3.213486
 
  0.0000000E+00  0.2777778E-01  0.0000000E+00  0.2314815E-02
    1      -22.030798
    2      -17.291419
    3      -15.788423
    4      -10.181185
    5       -8.798920
    6       -6.072897
    7       -5.776977
    8       -5.363856
    9       -1.207724
   10        0.568034
   11        1.365562
   12        1.761608
 
  0.4166667E-01  0.2777778E-01  0.0000000E+00  0.4629630E-02
    1      -22.021141
    2      -17.402131
    3      -15.662832
    4      -10.169745
    5       -8.789616
    6       -6.117932
    7       -5.795518
    8       -5.421136
    9       -1.134900
   10        0.581089
   11        1.378813
   12        1.775028
 
  0.8333333E-01  0.2777778E-01  0.0000000E+00  0.4629630E-02
    1      -21.992174
    2      -17.663403
    3      -15.357003
    4      -10.135444
    5       -8.761751
    6       -6.249940
    7       -5.851156
    8       -5.581640
    9       -0.927917
   10        0.620264
   11        1.418560
   12        1.815290
 
  0.1250000E+00  0.2777778E-01  0.0000000E+00  0.4629630E-02
    1      -21.943920
    2      -17.983935
    3      -14.962459
    4      -10.078340
    5       -8.715477
    6       -6.461594
    7       -5.942507
    8       -5.819172
    9       -0.613437
   10        0.685586
   11        1.484790
   12        1.882398
 
  0.1666667E+00  0.2777778E-01  0.0000000E+00  0.4629630E-02
    1      -21.876412
    2      -18.321216
    3      -14.522099
    4       -9.998531
    5       -8.651049
    6       -6.743797
    7       -6.106166
    8       -6.065792
    9       -0.219819
   10        0.777082
   11        1.577473
   12        1.976358
 
  0.2083333E+00  0.2777778E-01  0.0000000E+00  0.4629630E-02
    1      -21.789705
    2      -18.658071
    3      -14.053653
    4       -9.896161
    5       -8.568834
    6       -7.086635
    7       -6.420814
    8       -6.215676
    9        0.229986
   10        0.894775
   11        1.696564
   12        2.097175
 
  0.2500000E+00  0.2777778E-01  0.0000000E+00  0.4629630E-02
    1      -21.683862
    2      -18.986835
    3      -13.565524
    4       -9.771422
    5       -8.469326
    6       -7.480041
    7       -6.747829
    8       -6.386287
    9        0.719151
   10        1.038670
   11        1.841992
   12        2.244851
 
  0.2916667E+00  0.2777778E-01  0.0000000E+00  0.4629630E-02
    1      -21.558972
    2      -19.303623
    3      -13.062546
    4       -9.624562
    5       -8.353154
    6       -7.914407
    7       -7.076913
    8       -6.571848
    9        1.208753
   10        1.235355
   11        2.013645
   12        2.419384
 
  0.3333333E+00  0.2777778E-01  0.0000000E+00  0.4629630E-02
    1      -21.415139
    2      -19.606235
    3      -12.548100
    4       -9.455899
    5       -8.380998
    6       -8.221111
    7       -7.401132
    8       -6.767002
    9        1.404994
   10        1.768926
   11        2.211327
   12        2.620771
 
  0.3750000E+00  0.2777778E-01  0.0000000E+00  0.4629630E-02
    1      -21.252491
    2      -19.893308
    3      -12.025007
    4       -9.265830
    5       -8.872136
    6       -8.074170
    7       -7.715736
    8       -6.966973
    9        1.627347
   10        2.310913
   11        2.434661
   12        2.849004
 
  0.4166667E+00  0.2777778E-01  0.0000000E+00  0.4629630E-02
    1      -21.071184
    2      -20.163928
    3      -11.495951
    4       -9.381203
    5       -9.054856
    6       -8.017390
    7       -7.913522
    8       -7.167605
    9        1.875748
   10        2.682788
   11        2.848359
   12        3.104178
 
  0.4583333E+00  0.2777778E-01  0.0000000E+00  0.4629630E-02
    1      -20.871409
    2      -20.417450
    3      -10.963732
    4       -9.902564
    5       -8.823606
    6       -8.303694
    7       -7.740612
    8       -7.365344
    9        2.150112
   10        2.776248
   11        2.953098
   12        3.310426
 
  0.5000000E+00  0.2777778E-01  0.0000000E+00  0.2314815E-02
    1      -20.653400
    2      -20.653400
    3      -10.431433
    4      -10.431433
    5       -8.572877
    6       -8.572877
    7       -7.557185
    8       -7.557185
    9        2.450329
   10        2.450329
   11        3.231857
   12        3.233112
 
  0.0000000E+00  0.5555556E-01  0.0000000E+00  0.2314815E-02
    1      -21.989228
    2      -17.255249
    3      -15.753064
    4      -10.131934
    5       -8.984710
    6       -6.148450
    7       -5.950495
    8       -5.313790
    9       -1.214996
   10        0.624344
   11        1.422407
   12        1.819182
 
  0.4166667E-01  0.5555556E-01  0.0000000E+00  0.4629630E-02
    1      -21.979575
    2      -17.365634
    3      -15.627932
    4      -10.120505
    5       -8.975369
    6       -6.196668
    7       -5.964108
    8       -5.371403
    9       -1.142141
   10        0.637399
   11        1.435655
   12        1.832602
 
  0.8333333E-01  0.5555556E-01  0.0000000E+00  0.4629630E-02
    1      -21.950622
    2      -17.626273
    3      -15.323136
    4      -10.086239
    5       -8.947395
    6       -6.332206
    7       -6.011286
    8       -5.532695
    9       -0.935276
   10        0.676573
   11        1.475397
   12        1.872864
 
  0.1250000E+00  0.5555556E-01  0.0000000E+00  0.4629630E-02
    1      -21.902391
    2      -17.946181
    3      -14.929896
    4      -10.029192
    5       -8.900929
    6       -6.542179
    7       -6.097005
    8       -5.771082
    9       -0.621458
   10        0.741893
   11        1.541617
   12        1.939972
 
  0.1666667E+00  0.5555556E-01  0.0000000E+00  0.4629630E-02
    1      -21.834919
    2      -18.282911
    3      -14.491068
    4       -9.949464
    5       -8.836216
    6       -6.817550
    7       -6.218436
    8       -6.058748
    9       -0.229295
   10        0.833391
   11        1.634287
   12        2.033934
 
  0.2083333E+00  0.5555556E-01  0.0000000E+00  0.4629630E-02
    1      -21.748256
    2      -18.619289
    3      -14.024409
    4       -9.847198
    5       -8.753606
    6       -7.150266
    7       -6.373819
    8       -6.369321
    9        0.218193
   10        0.951088
   11        1.753363
   12        2.154753
 
  0.2500000E+00  0.5555556E-01  0.0000000E+00  0.4629630E-02
    1      -21.642469
    2      -18.947640
    3      -13.538373
    4       -9.722584
    5       -8.653568
    6       -7.532081
    7       -6.701034
    8       -6.542671
    9        0.704224
   10        1.094989
   11        1.898778
   12        2.302432
 
  0.2916667E+00  0.5555556E-01  0.0000000E+00  0.4629630E-02
    1      -21.517649
    2      -19.264071
    3      -13.037851
    4       -9.575873
    5       -8.536706
    6       -7.954699
    7       -7.030150
    8       -6.731813
    9        1.216574
   10        1.265083
   11        2.070420
   12        2.476971
 
  0.3333333E+00  0.5555556E-01  0.0000000E+00  0.4629630E-02
    1      -21.373898
    2      -19.566373
    3      -12.526296
    4       -9.407379
    5       -8.410184
    6       -8.403775
    7       -7.354286
    8       -6.930787
    9        1.461338
   10        1.745757
   11        2.268102
   12        2.678366
 
  0.3750000E+00  0.5555556E-01  0.0000000E+00  0.4629630E-02
    1      -21.211347
    2      -19.853176
    3      -12.006613
    4       -9.217500
    5       -8.891262
    6       -8.255711
    7       -7.668731
    8       -7.134448
    9        1.683708
   10        2.283268
   11        2.491457
   12        2.906610
 
  0.4166667E+00  0.5555556E-01  0.0000000E+00  0.4629630E-02
    1      -21.030153
    2      -20.123562
    3      -11.481585
    4       -9.391462
    5       -9.006733
    6       -8.093660
    7       -7.970182
    8       -7.338442
    9        1.932127
   10        2.739635
   11        2.818030
   12        3.161731
 
  0.4583333E+00  0.5555556E-01  0.0000000E+00  0.4629630E-02
    1      -20.830510
    2      -20.376881
    3      -10.954120
    4       -9.905140
    5       -8.775705
    6       -8.256259
    7       -7.919020
    8       -7.539130
    9        2.206513
   10        2.832726
   11        3.009948
   12        3.301572
 
  0.5000000E+00  0.5555556E-01  0.0000000E+00  0.2314815E-02
    1      -20.612654
    2      -20.612654
    3      -10.427426
    4      -10.427426
    5       -8.525208
    6       -8.525208
    7       -7.733489
    8       -7.733489
    9        2.506760
   10        2.506760
   11        3.286595
   12        3.286596
 
  0.0000000E+00  0.8333333E-01  0.0000000E+00  0.2314815E-02
    1      -21.919982
    2      -17.194978
    3      -15.694616
    4      -10.049967
    5       -9.278581
    6       -6.273257
    7       -6.224834
    8       -5.230420
    9       -1.229786
   10        0.718190
   11        1.517123
   12        1.915140
 
  0.4166667E-01  0.8333333E-01  0.0000000E+00  0.4629630E-02
    1      -21.910337
    2      -17.304835
    3      -15.570244
    4      -10.038559
    5       -9.269166
    6       -6.344158
    7       -6.212950
    8       -5.288620
    9       -1.156864
   10        0.731243
   11        1.530368
   12        1.928560
 
  0.8333333E-01  0.8333333E-01  0.0000000E+00  0.4629630E-02
    1      -21.881407
    2      -17.564439
    3      -15.267182
    4      -10.004351
    5       -9.240966
    6       -6.491612
    7       -6.240239
    8       -5.451297
    9       -0.950181
   10        0.770412
   11        1.570098
   12        1.968821
 
  0.1250000E+00  0.8333333E-01  0.0000000E+00  0.4629630E-02
    1      -21.833217
    2      -17.883316
    3      -14.876162
    4       -9.947404
    5       -9.194110
    6       -6.698313
    7       -6.317330
    8       -5.691172
    9       -0.637488
   10        0.835725
   11        1.636300
   12        2.035928
 
  0.1666667E+00  0.8333333E-01  0.0000000E+00  0.4629630E-02
    1      -21.765802
    2      -18.219130
    3      -14.439967
    4       -9.867814
    5       -9.128818
    6       -6.960463
    7       -6.437738
    8       -5.979998
    9       -0.247836
   10        0.927215
   11        1.728946
   12        2.129889
 
  0.2083333E+00  0.8333333E-01  0.0000000E+00  0.4629630E-02
    1      -21.679213
    2      -18.554711
    3      -13.976405
    4       -9.765725
    5       -9.045408
    6       -7.273997
    7       -6.592732
    8       -6.295790
    9        0.195650
   10        1.044906
   11        1.847994
   12        2.250710
 
  0.2500000E+00  0.8333333E-01  0.0000000E+00  0.4629630E-02
    1      -21.573523
    2      -18.882371
    3      -13.494016
    4       -9.641328
    5       -8.944302
    6       -7.633914
    7       -6.773240
    8       -6.623340
    9        0.676257
   10        1.188807
   11        1.993381
   12        2.398393
 
  0.2916667E+00  0.8333333E-01  0.0000000E+00  0.4629630E-02
    1      -21.448817
    2      -19.198203
    3      -12.997802
    4       -9.494871
    5       -8.826050
    6       -8.034344
    7       -6.970901
    8       -6.952501
    9        1.181927
   10        1.358905
   11        2.165002
   12        2.572938
 
  0.3333333E+00  0.8333333E-01  0.0000000E+00  0.4629630E-02
    1      -21.305202
    2      -19.499985
    3      -12.491352
    4       -9.326669
    5       -8.691336
    6       -8.468899
    7       -7.276483
    8       -7.178563
    9        1.555168
   10        1.703443
   11        2.362681
   12        2.774341
 
  0.3750000E+00  0.8333333E-01  0.0000000E+00  0.4629630E-02
    1      -21.142813
    2      -19.786337
    3      -11.977728
    4       -9.137116
    5       -8.931110
    6       -8.541013
    7       -7.590646
    8       -7.390368
    9        1.777546
   10        2.232900
   11        2.586073
   12        3.002597
 
  0.4166667E+00  0.8333333E-01  0.0000000E+00  0.4629630E-02
    1      -20.961809
    2      -20.056332
    3      -11.459903
    4       -9.414792
    5       -8.926707
    6       -8.376128
    7       -7.891741
    8       -7.601609
    9        2.025975
   10        2.761432
   11        2.834348
   12        3.259070
 
  0.4583333E+00  0.8333333E-01  0.0000000E+00  0.4629630E-02
    1      -20.762387
    2      -20.309310
    3      -10.941008
    4       -9.914276
    5       -8.696062
    6       -8.197970
    7       -8.177424
    8       -7.808528
    9        2.300371
   10        2.926618
   11        3.104670
   12        3.263502
 
  0.5000000E+00  0.8333333E-01  0.0000000E+00  0.2314815E-02
    1      -20.544787
    2      -20.544787
    3      -10.424498
    4      -10.424498
    5       -8.445966
    6       -8.445966
    7       -8.008119
    8       -8.008119
    9        2.600629
   10        2.600629
   11        3.375740
   12        3.375853
 
  0.0000000E+00  0.1111111E+00  0.0000000E+00  0.2314815E-02
    1      -21.823120
    2      -17.110628
    3      -15.613902
    4       -9.935467
    5       -9.661076
    6       -6.582078
    7       -6.445580
    8       -5.113859
    9       -1.256104
   10        0.849566
   11        1.649670
   12        2.049482
 
  0.4166667E-01  0.1111111E+00  0.0000000E+00  0.4629630E-02
    1      -21.813486
    2      -17.219780
    3      -15.490584
    4       -9.924088
    5       -9.651529
    6       -6.638360
    7       -6.444583
    8       -5.172956
    9       -1.183050
   10        0.862615
   11        1.662909
   12        2.062901
 
  0.8333333E-01  0.1111111E+00  0.0000000E+00  0.4629630E-02
    1      -21.784591
    2      -17.477978
    3      -15.189983
    4       -9.889967
    5       -9.622924
    6       -6.775038
    7       -6.472013
    8       -5.337730
    9       -0.976568
   10        0.901770
   11        1.702621
   12        2.103159
 
  0.1250000E+00  0.1111111E+00  0.0000000E+00  0.4629630E-02
    1      -21.736457
    2      -17.795431
    3      -14.802188
    4       -9.833164
    5       -9.575364
    6       -6.967255
    7       -6.547562
    8       -5.579834
    9       -0.665484
   10        0.967062
   11        1.768792
   12        2.170263
 
  0.1666667E+00  0.1111111E+00  0.0000000E+00  0.4629630E-02
    1      -21.669121
    2      -18.129965
    3      -14.369879
    4       -9.753777
    5       -9.509030
    6       -7.207026
    7       -6.670942
    8       -5.870372
    9       -0.279505
   10        1.058526
   11        1.861397
   12        2.264221
 
  0.2083333E+00  0.1111111E+00  0.0000000E+00  0.4629630E-02
    1      -21.582639
    2      -18.464427
    3      -13.910945
    4       -9.651947
    5       -9.424178
    6       -7.490605
    7       -6.835108
    8       -6.187208
    9        0.158097
   10        1.176192
   11        1.980398
   12        2.385039
 
  0.2500000E+00  0.1111111E+00  0.0000000E+00  0.4629630E-02
    1      -21.477081
    2      -18.791115
    3      -13.434068
    4       -9.527868
    5       -9.321149
    6       -7.815543
    7       -7.030054
    8       -6.515225
    9        0.630727
   10        1.320069
   11        2.125735
   12        2.532726
 
  0.2916667E+00  0.1111111E+00  0.0000000E+00  0.4629630E-02
    1      -21.352535
    2      -19.106102
    3      -12.944434
    4       -9.381784
    5       -9.200382
    6       -8.179331
    7       -7.245141
    8       -6.844427
    9        1.126558
   10        1.490149
   11        2.297315
   12        2.707269
 
  0.3333333E+00  0.1111111E+00  0.0000000E+00  0.4629630E-02
    1      -21.209115
    2      -19.407151
    3      -12.445866
    4       -9.214011
    5       -9.062424
    6       -8.578554
    7       -7.470821
    8       -7.168159
    9        1.636703
   10        1.686397
   11        2.494980
   12        2.908679
 
  0.3750000E+00  0.1111111E+00  0.0000000E+00  0.4629630E-02
    1      -21.046953
    2      -19.692865
    3      -11.941713
    4       -9.024938
    5       -9.008668
    6       -8.907952
    7       -7.699500
    8       -7.481890
    9        1.908761
   10        2.153869
   11        2.718421
   12        3.136951
 
  0.4166667E+00  0.1111111E+00  0.0000000E+00  0.4629630E-02
    1      -20.866215
    2      -19.962307
    3      -11.435297
    4       -9.464345
    5       -8.815055
    6       -8.737800
    7       -7.925564
    8       -7.782445
    9        2.157171
   10        2.671021
   11        2.966862
   12        3.392079
 
  0.4583333E+00  0.1111111E+00  0.0000000E+00  0.4629630E-02
    1      -20.667105
    2      -20.214807
    3      -10.930167
    4       -9.940005
    5       -8.584977
    6       -8.553002
    7       -8.144983
    8       -8.067538
    9        2.431542
   10        3.057711
   11        3.176470
   12        3.237214
 
  0.5000000E+00  0.1111111E+00  0.0000000E+00  0.2314815E-02
    1      -20.449866
    2      -20.449866
    3      -10.430262
    4      -10.430262
    5       -8.354848
    6       -8.354848
    7       -8.335475
    8       -8.335475
    9        2.731766
   10        2.731766
   11        3.487492
   12        3.487500
 
  0.0000000E+00  0.1388889E+00  0.0000000E+00  0.2314815E-02
    1      -21.698728
    2      -17.002230
    3      -15.512304
    4      -10.110912
    5       -9.788697
    6       -7.003342
    7       -6.662903
    8       -4.964264
    9       -1.299517
   10        1.018457
   11        1.819989
   12        2.222209
 
  0.4166667E-01  0.1388889E+00  0.0000000E+00  0.4629630E-02
    1      -21.689108
    2      -17.110538
    3      -15.390331
    4      -10.101137
    5       -9.777356
    6       -7.049014
    7       -6.668056
    8       -5.024663
    9       -1.226203
   10        1.031498
   11        1.833217
   12        2.235626
 
  0.8333333E-01  0.1388889E+00  0.0000000E+00  0.4629630E-02
    1      -21.660255
    2      -17.367009
    3      -15.092980
    4      -10.071833
    5       -9.743354
    6       -7.171806
    7       -6.696581
    8       -5.192447
    9       -1.019837
   10        1.070629
   11        1.872899
   12        2.275879
 
  0.1250000E+00  0.1388889E+00  0.0000000E+00  0.4629630E-02
    1      -21.612194
    2      -17.682666
    3      -14.709587
    4      -10.023060
    5       -9.686748
    6       -7.350045
    7       -6.766612
    8       -5.437691
    9       -0.710829
   10        1.135882
   11        1.939021
   12        2.342976
 
  0.1666667E+00  0.1388889E+00  0.0000000E+00  0.4629630E-02
    1      -21.544964
    2      -18.015561
    3      -14.282716
    4       -9.954921
    5       -9.607637
    6       -7.570254
    7       -6.885602
    8       -5.730588
    9       -0.329795
   10        1.227295
   11        2.031559
   12        2.436923
 
  0.2083333E+00  0.1388889E+00  0.0000000E+00  0.4629630E-02
    1      -21.458618
    2      -18.348576
    3      -13.830381
    4       -9.867554
    5       -9.506162
    6       -7.825312
    7       -7.052237
    8       -6.048824
    9        0.099827
   10        1.344901
   11        2.150478
   12        2.557731
 
  0.2500000E+00  0.1388889E+00  0.0000000E+00  0.4629630E-02
    1      -21.353231
    2      -18.674001
    3      -13.361498
    4       -9.761141
    5       -9.382516
    6       -8.111963
    7       -7.259347
    8       -6.377431
    9        0.561637
   10        1.488720
   11        2.295725
   12        2.705407
 
  0.2916667E+00  0.1388889E+00  0.0000000E+00  0.4629630E-02
    1      -21.228894
    2      -18.987890
    3      -12.881580
    4       -9.635896
    5       -9.236944
    6       -8.429450
    7       -7.496000
    8       -6.706635
    9        1.044125
   10        1.658744
   11        2.467220
   12        2.879951
 
  0.3333333E+00  0.1388889E+00  0.0000000E+00  0.4629630E-02
    1      -21.085722
    2      -19.287985
    3      -12.394869
    4       -9.492073
    5       -9.069758
    6       -8.778204
    7       -7.749655
    8       -7.029979
    9        1.538800
   10        1.854940
   11        2.664837
   12        3.081362
 
  0.3750000E+00  0.1388889E+00  0.0000000E+00  0.4629630E-02
    1      -20.923855
    2      -19.572870
    3      -11.905257
    4       -9.329959
    5       -9.158279
    6       -8.881344
    7       -8.008476
    8       -7.343078
    9        2.038933
   10        2.077252
   11        2.888328
   12        3.309632
 
  0.4166667E+00  0.1388889E+00  0.0000000E+00  0.4629630E-02
    1      -20.743464
    2      -19.841593
    3      -11.416744
    4       -9.568064
    5       -9.149897
    6       -8.672188
    7       -8.263142
    8       -7.642865
    9        2.325602
   10        2.538688
   11        3.137042
   12        3.565185
 
  0.4583333E+00  0.1388889E+00  0.0000000E+00  0.4629630E-02
    1      -20.544757
    2      -20.093469
    3      -10.933704
    4      -10.003965
    5       -8.952312
    6       -8.507455
    7       -8.442893
    8       -7.927125
    9        2.599897
   10        3.031924
   11        3.225838
   12        3.407446
 
  0.5000000E+00  0.1388889E+00  0.0000000E+00  0.2314815E-02
    1      -20.327987
    2      -20.327987
    3      -10.461004
    4      -10.461004
    5       -8.737820
    6       -8.737820
    7       -8.194217
    8       -8.194217
    9        2.900022
   10        2.900022
   11        3.496469
   12        3.496877
 
  0.0000000E+00  0.1666667E+00  0.0000000E+00  0.2314815E-02
    1      -21.546919
    2      -16.869825
    3      -15.392123
    4      -10.607269
    5       -9.610007
    6       -7.471248
    7       -6.921927
    8       -4.781846
    9       -1.366959
   10        1.224838
   11        2.027992
   12        2.433319
 
  0.4166667E-01  0.1666667E+00  0.0000000E+00  0.4629630E-02
    1      -21.537317
    2      -16.977211
    3      -15.271795
    4      -10.597104
    5       -9.598719
    6       -7.514805
    7       -6.924224
    8       -4.844113
    9       -1.293128
   10        1.237867
   11        2.041205
   12        2.446734
 
  0.8333333E-01  0.1666667E+00  0.0000000E+00  0.4629630E-02
    1      -21.508519
    2      -17.231708
    3      -14.978621
    4      -10.566600
    5       -9.564872
    6       -7.633757
    7       -6.942242
    8       -5.016142
    9       -1.086564
   10        1.276964
   11        2.080837
   12        2.486980
 
  0.1250000E+00  0.1666667E+00  0.0000000E+00  0.4629630E-02
    1      -21.460548
    2      -17.545226
    3      -14.601167
    4      -10.515729
    5       -9.508525
    6       -7.806967
    7       -6.995151
    8       -5.265700
    9       -0.779980
   10        1.342156
   11        2.146876
   12        2.554063
 
  0.1666667E+00  0.1666667E+00  0.0000000E+00  0.4629630E-02
    1      -21.393444
    2      -17.876124
    3      -14.181884
    4      -10.444435
    5       -9.429777
    6       -8.018319
    7       -7.095328
    8       -5.561736
    9       -0.405213
   10        1.433484
   11        2.239299
   12        2.648064
 
  0.2083333E+00  0.1666667E+00  0.0000000E+00  0.4629630E-02
    1      -21.307266
    2      -18.207356
    3      -13.739019
    4      -10.352617
    5       -9.328771
    6       -8.257794
    7       -7.246893
    8       -5.881757
    9        0.014163
   10        1.550989
   11        2.358071
   12        2.768778
 
  0.2500000E+00  0.1666667E+00  0.0000000E+00  0.4629630E-02
    1      -21.202089
    2      -18.531217
    3      -13.281920
    4      -10.240102
    5       -9.205698
    6       -8.519613
    7       -7.447549
    8       -6.211048
    9        0.462087
   10        1.694698
   11        2.503144
   12        2.916459
 
  0.2916667E+00  0.1666667E+00  0.0000000E+00  0.4629630E-02
    1      -21.078008
    2      -18.843741
    3      -12.816722
    4      -10.106612
    5       -9.060802
    6       -8.801130
    7       -7.690084
    8       -6.540159
    9        0.927516
   10        1.864614
   11        2.674453
   12        3.090961
 
  0.3333333E+00  0.1666667E+00  0.0000000E+00  0.4629630E-02
    1      -20.935144
    2      -19.142649
    3      -12.348506
    4       -9.951721
    5       -9.102317
    6       -8.894394
    7       -7.963600
    8       -6.862902
    9        1.402462
   10        2.060707
   11        2.871906
   12        3.292363
 
  0.3750000E+00  0.1666667E+00  0.0000000E+00  0.4629630E-02
    1      -20.773641
    2      -19.426505
    3      -11.882260
    4       -9.774824
    5       -9.425263
    6       -8.706859
    7       -8.254818
    8       -7.175094
    9        1.880761
   10        2.282915
   11        3.095355
   12        3.520631
 
  0.4166667E+00  0.1666667E+00  0.0000000E+00  0.4629630E-02
    1      -20.593679
    2      -19.694333
    3      -11.423326
    4       -9.773113
    5       -9.575155
    6       -8.549805
    7       -8.498672
    8       -7.473808
    9        2.357354
   10        2.531154
   11        3.344458
   12        3.776075
 
  0.4583333E+00  0.1666667E+00  0.0000000E+00  0.4629630E-02
    1      -20.395471
    2      -19.945435
    3      -10.977515
    4      -10.148299
    5       -9.351981
    6       -8.836191
    7       -8.270428
    8       -7.756924
    9        2.805315
   10        2.827826
   11        3.430892
   12        3.614551
 
  0.5000000E+00  0.1666667E+00  0.0000000E+00  0.2314815E-02
    1      -20.179283
    2      -20.179283
    3      -10.550783
    4      -10.550783
    5       -9.105149
    6       -9.105149
    7       -8.022865
    8       -8.022865
    9        3.105270
   10        3.105270
   11        3.287820
   12        3.287881
 