<?xml version="1.0" encoding="ISO-8859-1"?>
<modeling>
 <generator>
  <i name="program" type="string">vasp </i>
  <i name="version" type="string">5.3.5  </i>
  <i name="subversion" type="string">31Mar14 (build Mar 02 2015 18:14:16) complex                          parallel </i>
  <i name="platform" type="string">LinuxIFC </i>
  <i name="date" type="string">2018 08 10 </i>
  <i name="time" type="string">14:35:22 </i>
 </generator>
 <incar>
  <i type="string" name="SYSTEM">  gr</i>
  <i type="string" name="PREC">accurate : accuracy</i>
  <i type="string" name="ALGO"> FAST.</i>
  <i type="int" name="NELM">   100</i>
  <i type="int" name="NELMDL">    -3</i>
  <i type="int" name="NELMIN">     5</i>
  <i type="int" name="IBRION">     1</i>
  <i name="EDIFF">      0.00000000</i>
  <i name="EDIFFG">     -0.00000100</i>
  <i type="int" name="NSW">   400</i>
  <i type="int" name="ISIF">     2</i>
  <i name="ENCUT">   2000.00000000</i>
  <i type="int" name="ISMEAR">     0</i>
  <i name="SIGMA">      0.05000000</i>
  <i type="int" name="NWRITE">     2</i>
  <i type="logical" name="LWAVE"> F  </i>
  <i type="logical" name="LCHARG"> F  </i>
  <i type="int" name="NELM">   100</i>
 </incar>
 <kpoints>
  <generation param="Gamma">
   <v type="int" name="divisions">      24       36        1 </v>
   <v name="usershift">      0.00000000       0.00000000       0.00000000 </v>
   <v name="genvec1">      0.04166667       0.00000000       0.00000000 </v>
   <v name="genvec2">      0.00000000       0.02777778       0.00000000 </v>
   <v name="genvec3">      0.00000000       0.00000000       1.00000000 </v>
   <v name="shift">      0.00000000       0.00000000       0.00000000 </v>
  </generation>
  <varray name="kpointlist" >
   <v>       0.00000000       0.00000000       0.00000000 </v>
   <v>       0.04166667       0.00000000       0.00000000 </v>
   <v>       0.08333333       0.00000000       0.00000000 </v>
   <v>       0.12500000       0.00000000       0.00000000 </v>
   <v>       0.16666667       0.00000000       0.00000000 </v>
   <v>       0.20833333       0.00000000       0.00000000 </v>
   <v>       0.25000000       0.00000000       0.00000000 </v>
   <v>       0.29166667       0.00000000       0.00000000 </v>
   <v>       0.33333333       0.00000000       0.00000000 </v>
   <v>       0.37500000       0.00000000       0.00000000 </v>
   <v>       0.41666667       0.00000000       0.00000000 </v>
   <v>       0.45833333       0.00000000       0.00000000 </v>
   <v>       0.50000000       0.00000000       0.00000000 </v>
   <v>       0.00000000       0.02777778       0.00000000 </v>
   <v>       0.04166667       0.02777778       0.00000000 </v>
   <v>       0.08333333       0.02777778       0.00000000 </v>
   <v>       0.12500000       0.02777778       0.00000000 </v>
   <v>       0.16666667       0.02777778       0.00000000 </v>
   <v>       0.20833333       0.02777778       0.00000000 </v>
   <v>       0.25000000       0.02777778       0.00000000 </v>
   <v>       0.29166667       0.02777778       0.00000000 </v>
   <v>       0.33333333       0.02777778       0.00000000 </v>
   <v>       0.37500000       0.02777778       0.00000000 </v>
   <v>       0.41666667       0.02777778       0.00000000 </v>
   <v>       0.45833333       0.02777778       0.00000000 </v>
   <v>       0.50000000       0.02777778       0.00000000 </v>
   <v>       0.00000000       0.05555556       0.00000000 </v>
   <v>       0.04166667       0.05555556       0.00000000 </v>
   <v>       0.08333333       0.05555556       0.00000000 </v>
   <v>       0.12500000       0.05555556       0.00000000 </v>
   <v>       0.16666667       0.05555556       0.00000000 </v>
   <v>       0.20833333       0.05555556       0.00000000 </v>
   <v>       0.25000000       0.05555556       0.00000000 </v>
   <v>       0.29166667       0.05555556       0.00000000 </v>
   <v>       0.33333333       0.05555556       0.00000000 </v>
   <v>       0.37500000       0.05555556       0.00000000 </v>
   <v>       0.41666667       0.05555556       0.00000000 </v>
   <v>       0.45833333       0.05555556       0.00000000 </v>
   <v>       0.50000000       0.05555556       0.00000000 </v>
   <v>       0.00000000       0.08333333       0.00000000 </v>
   <v>       0.04166667       0.08333333       0.00000000 </v>
   <v>       0.08333333       0.08333333       0.00000000 </v>
   <v>       0.12500000       0.08333333       0.00000000 </v>
   <v>       0.16666667       0.08333333       0.00000000 </v>
   <v>       0.20833333       0.08333333       0.00000000 </v>
   <v>       0.25000000       0.08333333       0.00000000 </v>
   <v>       0.29166667       0.08333333       0.00000000 </v>
   <v>       0.33333333       0.08333333       0.00000000 </v>
   <v>       0.37500000       0.08333333       0.00000000 </v>
   <v>       0.41666667       0.08333333       0.00000000 </v>
   <v>       0.45833333       0.08333333       0.00000000 </v>
   <v>       0.50000000       0.08333333       0.00000000 </v>
   <v>       0.00000000       0.11111111       0.00000000 </v>
   <v>       0.04166667       0.11111111       0.00000000 </v>
   <v>       0.08333333       0.11111111       0.00000000 </v>
   <v>       0.12500000       0.11111111       0.00000000 </v>
   <v>       0.16666667       0.11111111       0.00000000 </v>
   <v>       0.20833333       0.11111111       0.00000000 </v>
   <v>       0.25000000       0.11111111       0.00000000 </v>
   <v>       0.29166667       0.11111111       0.00000000 </v>
   <v>       0.33333333       0.11111111       0.00000000 </v>
   <v>       0.37500000       0.11111111       0.00000000 </v>
   <v>       0.41666667       0.11111111       0.00000000 </v>
   <v>       0.45833333       0.11111111       0.00000000 </v>
   <v>       0.50000000       0.11111111       0.00000000 </v>
   <v>       0.00000000       0.13888889       0.00000000 </v>
   <v>       0.04166667       0.13888889       0.00000000 </v>
   <v>       0.08333333       0.13888889       0.00000000 </v>
   <v>       0.12500000       0.13888889       0.00000000 </v>
   <v>       0.16666667       0.13888889       0.00000000 </v>
   <v>       0.20833333       0.13888889       0.00000000 </v>
   <v>       0.25000000       0.13888889       0.00000000 </v>
   <v>       0.29166667       0.13888889       0.00000000 </v>
   <v>       0.33333333       0.13888889       0.00000000 </v>
   <v>       0.37500000       0.13888889       0.00000000 </v>
   <v>       0.41666667       0.13888889       0.00000000 </v>
   <v>       0.45833333       0.13888889       0.00000000 </v>
   <v>       0.50000000       0.13888889       0.00000000 </v>
   <v>       0.00000000       0.16666667       0.00000000 </v>
   <v>       0.04166667       0.16666667       0.00000000 </v>
   <v>       0.08333333       0.16666667       0.00000000 </v>
   <v>       0.12500000       0.16666667       0.00000000 </v>
   <v>       0.16666667       0.16666667       0.00000000 </v>
   <v>       0.20833333       0.16666667       0.00000000 </v>
   <v>       0.25000000       0.16666667       0.00000000 </v>
   <v>       0.29166667       0.16666667       0.00000000 </v>
   <v>       0.33333333       0.16666667       0.00000000 </v>
   <v>       0.37500000       0.16666667       0.00000000 </v>
   <v>       0.41666667       0.16666667       0.00000000 </v>
   <v>       0.45833333       0.16666667       0.00000000 </v>
   <v>       0.50000000       0.16666667       0.00000000 </v>
   <v>       0.00000000       0.19444444       0.00000000 </v>
   <v>       0.04166667       0.19444444       0.00000000 </v>
   <v>       0.08333333       0.19444444       0.00000000 </v>
   <v>       0.12500000       0.19444444       0.00000000 </v>
   <v>       0.16666667       0.19444444       0.00000000 </v>
   <v>       0.20833333       0.19444444       0.00000000 </v>
   <v>       0.25000000       0.19444444       0.00000000 </v>
   <v>       0.29166667       0.19444444       0.00000000 </v>
   <v>       0.33333333       0.19444444       0.00000000 </v>
   <v>       0.37500000       0.19444444       0.00000000 </v>
   <v>       0.41666667       0.19444444       0.00000000 </v>
   <v>       0.45833333       0.19444444       0.00000000 </v>
   <v>       0.50000000       0.19444444       0.00000000 </v>
   <v>       0.00000000       0.22222222       0.00000000 </v>
   <v>       0.04166667       0.22222222       0.00000000 </v>
   <v>       0.08333333       0.22222222       0.00000000 </v>
   <v>       0.12500000       0.22222222       0.00000000 </v>
   <v>       0.16666667       0.22222222       0.00000000 </v>
   <v>       0.20833333       0.22222222       0.00000000 </v>
   <v>       0.25000000       0.22222222       0.00000000 </v>
   <v>       0.29166667       0.22222222       0.00000000 </v>
   <v>       0.33333333       0.22222222       0.00000000 </v>
   <v>       0.37500000       0.22222222       0.00000000 </v>
   <v>       0.41666667       0.22222222       0.00000000 </v>
   <v>       0.45833333       0.22222222       0.00000000 </v>
   <v>       0.50000000       0.22222222       0.00000000 </v>
   <v>       0.00000000       0.25000000       0.00000000 </v>
   <v>       0.04166667       0.25000000       0.00000000 </v>
   <v>       0.08333333       0.25000000       0.00000000 </v>
   <v>       0.12500000       0.25000000       0.00000000 </v>
   <v>       0.16666667       0.25000000       0.00000000 </v>
   <v>       0.20833333       0.25000000       0.00000000 </v>
   <v>       0.25000000       0.25000000       0.00000000 </v>
   <v>       0.29166667       0.25000000       0.00000000 </v>
   <v>       0.33333333       0.25000000       0.00000000 </v>
   <v>       0.37500000       0.25000000       0.00000000 </v>
   <v>       0.41666667       0.25000000       0.00000000 </v>
   <v>       0.45833333       0.25000000       0.00000000 </v>
   <v>       0.50000000       0.25000000       0.00000000 </v>
   <v>       0.00000000       0.27777778       0.00000000 </v>
   <v>       0.04166667       0.27777778       0.00000000 </v>
   <v>       0.08333333       0.27777778       0.00000000 </v>
   <v>       0.12500000       0.27777778       0.00000000 </v>
   <v>       0.16666667       0.27777778       0.00000000 </v>
   <v>       0.20833333       0.27777778       0.00000000 </v>
   <v>       0.25000000       0.27777778       0.00000000 </v>
   <v>       0.29166667       0.27777778       0.00000000 </v>
   <v>       0.33333333       0.27777778       0.00000000 </v>
   <v>       0.37500000       0.27777778       0.00000000 </v>
   <v>       0.41666667       0.27777778       0.00000000 </v>
   <v>       0.45833333       0.27777778       0.00000000 </v>
   <v>       0.50000000       0.27777778       0.00000000 </v>
   <v>       0.00000000       0.30555556       0.00000000 </v>
   <v>       0.04166667       0.30555556       0.00000000 </v>
   <v>       0.08333333       0.30555556       0.00000000 </v>
   <v>       0.12500000       0.30555556       0.00000000 </v>
   <v>       0.16666667       0.30555556       0.00000000 </v>
   <v>       0.20833333       0.30555556       0.00000000 </v>
   <v>       0.25000000       0.30555556       0.00000000 </v>
   <v>       0.29166667       0.30555556       0.00000000 </v>
   <v>       0.33333333       0.30555556       0.00000000 </v>
   <v>       0.37500000       0.30555556       0.00000000 </v>
   <v>       0.41666667       0.30555556       0.00000000 </v>
   <v>       0.45833333       0.30555556       0.00000000 </v>
   <v>       0.50000000       0.30555556       0.00000000 </v>
   <v>       0.00000000       0.33333333       0.00000000 </v>
   <v>       0.04166667       0.33333333       0.00000000 </v>
   <v>       0.08333333       0.33333333       0.00000000 </v>
   <v>       0.12500000       0.33333333       0.00000000 </v>
   <v>       0.16666667       0.33333333       0.00000000 </v>
   <v>       0.20833333       0.33333333       0.00000000 </v>
   <v>       0.25000000       0.33333333       0.00000000 </v>
   <v>       0.29166667       0.33333333       0.00000000 </v>
   <v>       0.33333333       0.33333333       0.00000000 </v>
   <v>       0.37500000       0.33333333       0.00000000 </v>
   <v>       0.41666667       0.33333333       0.00000000 </v>
   <v>       0.45833333       0.33333333       0.00000000 </v>
   <v>       0.50000000       0.33333333       0.00000000 </v>
   <v>       0.00000000       0.36111111       0.00000000 </v>
   <v>       0.04166667       0.36111111       0.00000000 </v>
   <v>       0.08333333       0.36111111       0.00000000 </v>
   <v>       0.12500000       0.36111111       0.00000000 </v>
   <v>       0.16666667       0.36111111       0.00000000 </v>
   <v>       0.20833333       0.36111111       0.00000000 </v>
   <v>       0.25000000       0.36111111       0.00000000 </v>
   <v>       0.29166667       0.36111111       0.00000000 </v>
   <v>       0.33333333       0.36111111       0.00000000 </v>
   <v>       0.37500000       0.36111111       0.00000000 </v>
   <v>       0.41666667       0.36111111       0.00000000 </v>
   <v>       0.45833333       0.36111111       0.00000000 </v>
   <v>       0.50000000       0.36111111       0.00000000 </v>
   <v>       0.00000000       0.38888889       0.00000000 </v>
   <v>       0.04166667       0.38888889       0.00000000 </v>
   <v>       0.08333333       0.38888889       0.00000000 </v>
   <v>       0.12500000       0.38888889       0.00000000 </v>
   <v>       0.16666667       0.38888889       0.00000000 </v>
   <v>       0.20833333       0.38888889       0.00000000 </v>
   <v>       0.25000000       0.38888889       0.00000000 </v>
   <v>       0.29166667       0.38888889       0.00000000 </v>
   <v>       0.33333333       0.38888889       0.00000000 </v>
   <v>       0.37500000       0.38888889       0.00000000 </v>
   <v>       0.41666667       0.38888889       0.00000000 </v>
   <v>       0.45833333       0.38888889       0.00000000 </v>
   <v>       0.50000000       0.38888889       0.00000000 </v>
   <v>       0.00000000       0.41666667       0.00000000 </v>
   <v>       0.04166667       0.41666667       0.00000000 </v>
   <v>       0.08333333       0.41666667       0.00000000 </v>
   <v>       0.12500000       0.41666667       0.00000000 </v>
   <v>       0.16666667       0.41666667       0.00000000 </v>
   <v>       0.20833333       0.41666667       0.00000000 </v>
   <v>       0.25000000       0.41666667       0.00000000 </v>
   <v>       0.29166667       0.41666667       0.00000000 </v>
   <v>       0.33333333       0.41666667       0.00000000 </v>
   <v>       0.37500000       0.41666667       0.00000000 </v>
   <v>       0.41666667       0.41666667       0.00000000 </v>
   <v>       0.45833333       0.41666667       0.00000000 </v>
   <v>       0.50000000       0.41666667       0.00000000 </v>
   <v>       0.00000000       0.44444444       0.00000000 </v>
   <v>       0.04166667       0.44444444       0.00000000 </v>
   <v>       0.08333333       0.44444444       0.00000000 </v>
   <v>       0.12500000       0.44444444       0.00000000 </v>
   <v>       0.16666667       0.44444444       0.00000000 </v>
   <v>       0.20833333       0.44444444       0.00000000 </v>
   <v>       0.25000000       0.44444444       0.00000000 </v>
   <v>       0.29166667       0.44444444       0.00000000 </v>
   <v>       0.33333333       0.44444444       0.00000000 </v>
   <v>       0.37500000       0.44444444       0.00000000 </v>
   <v>       0.41666667       0.44444444       0.00000000 </v>
   <v>       0.45833333       0.44444444       0.00000000 </v>
   <v>       0.50000000       0.44444444       0.00000000 </v>
   <v>       0.00000000       0.47222222       0.00000000 </v>
   <v>       0.04166667       0.47222222       0.00000000 </v>
   <v>       0.08333333       0.47222222       0.00000000 </v>
   <v>       0.12500000       0.47222222       0.00000000 </v>
   <v>       0.16666667       0.47222222       0.00000000 </v>
   <v>       0.20833333       0.47222222       0.00000000 </v>
   <v>       0.25000000       0.47222222       0.00000000 </v>
   <v>       0.29166667       0.47222222       0.00000000 </v>
   <v>       0.33333333       0.47222222       0.00000000 </v>
   <v>       0.37500000       0.47222222       0.00000000 </v>
   <v>       0.41666667       0.47222222       0.00000000 </v>
   <v>       0.45833333       0.47222222       0.00000000 </v>
   <v>       0.50000000       0.47222222       0.00000000 </v>
   <v>       0.00000000       0.50000000       0.00000000 </v>
   <v>       0.04166667       0.50000000       0.00000000 </v>
   <v>       0.08333333       0.50000000       0.00000000 </v>
   <v>       0.12500000       0.50000000       0.00000000 </v>
   <v>       0.16666667       0.50000000       0.00000000 </v>
   <v>       0.20833333       0.50000000       0.00000000 </v>
   <v>       0.25000000       0.50000000       0.00000000 </v>
   <v>       0.29166667       0.50000000       0.00000000 </v>
   <v>       0.33333333       0.50000000       0.00000000 </v>
   <v>       0.37500000       0.50000000       0.00000000 </v>
   <v>       0.41666667       0.50000000       0.00000000 </v>
   <v>       0.45833333       0.50000000       0.00000000 </v>
   <v>       0.50000000       0.50000000       0.00000000 </v>
  </varray>
  <varray name="weights" >
   <v>       0.00115741 </v>
   <v>       0.00231481 </v>
   <v>       0.00231481 </v>
   <v>       0.00231481 </v>
   <v>       0.00231481 </v>
   <v>       0.00231481 </v>
   <v>       0.00231481 </v>
   <v>       0.00231481 </v>
   <v>       0.00231481 </v>
   <v>       0.00231481 </v>
   <v>       0.00231481 </v>
   <v>       0.00231481 </v>
   <v>       0.00115741 </v>
   <v>       0.00231481 </v>
   <v>       0.00462963 </v>
   <v>       0.00462963 </v>
   <v>       0.00462963 </v>
   <v>       0.00462963 </v>
   <v>       0.00462963 </v>
   <v>       0.00462963 </v>
   <v>       0.00462963 </v>
   <v>       0.00462963 </v>
   <v>       0.00462963 </v>
   <v>       0.00462963 </v>
   <v>       0.00462963 </v>
   <v>       0.00231481 </v>
   <v>       0.00231481 </v>
   <v>       0.00462963 </v>
   <v>       0.00462963 </v>
   <v>       0.00462963 </v>
   <v>       0.00462963 </v>
   <v>       0.00462963 </v>
   <v>       0.00462963 </v>
   <v>       0.00462963 </v>
   <v>       0.00462963 </v>
   <v>       0.00462963 </v>
   <v>       0.00462963 </v>
   <v>       0.00462963 </v>
   <v>       0.00231481 </v>
   <v>       0.00231481 </v>
   <v>       0.00462963 </v>
   <v>       0.00462963 </v>
   <v>       0.00462963 </v>
   <v>       0.00462963 </v>
   <v>       0.00462963 </v>
   <v>       0.00462963 </v>
   <v>       0.00462963 </v>
   <v>       0.00462963 </v>
   <v>       0.00462963 </v>
   <v>       0.00462963 </v>
   <v>       0.00462963 </v>
   <v>       0.00231481 </v>
   <v>       0.00231481 </v>
   <v>       0.00462963 </v>
   <v>       0.00462963 </v>
   <v>       0.00462963 </v>
   <v>       0.00462963 </v>
   <v>       0.00462963 </v>
   <v>       0.00462963 </v>
   <v>       0.00462963 </v>
   <v>       0.00462963 </v>
   <v>       0.00462963 </v>
   <v>       0.00462963 </v>
   <v>       0.00462963 </v>
   <v>       0.00231481 </v>
   <v>       0.00231481 </v>
   <v>       0.00462963 </v>
   <v>       0.00462963 </v>
   <v>       0.00462963 </v>
   <v>       0.00462963 </v>
   <v>       0.00462963 </v>
   <v>       0.00462963 </v>
   <v>       0.00462963 </v>
   <v>       0.00462963 </v>
   <v>       0.00462963 </v>
   <v>       0.00462963 </v>
   <v>       0.00462963 </v>
   <v>       0.00231481 </v>
   <v>       0.00231481 </v>
   <v>       0.00462963 </v>
   <v>       0.00462963 </v>
   <v>       0.00462963 </v>
   <v>       0.00462963 </v>
   <v>       0.00462963 </v>
   <v>       0.00462963 </v>
   <v>       0.00462963 </v>
   <v>       0.00462963 </v>
   <v>       0.00462963 </v>
   <v>       0.00462963 </v>
   <v>       0.00462963 </v>
   <v>       0.00231481 </v>
   <v>       0.00231481 </v>
   <v>       0.00462963 </v>
   <v>       0.00462963 </v>
   <v>       0.00462963 </v>
   <v>       0.00462963 </v>
   <v>       0.00462963 </v>
   <v>       0.00462963 </v>
   <v>       0.00462963 </v>
   <v>       0.00462963 </v>
   <v>       0.00462963 </v>
   <v>       0.00462963 </v>
   <v>       0.00462963 </v>
   <v>       0.00231481 </v>
   <v>       0.00231481 </v>
   <v>       0.00462963 </v>
   <v>       0.00462963 </v>
   <v>       0.00462963 </v>
   <v>       0.00462963 </v>
   <v>       0.00462963 </v>
   <v>       0.00462963 </v>
   <v>       0.00462963 </v>
   <v>       0.00462963 </v>
   <v>       0.00462963 </v>
   <v>       0.00462963 </v>
   <v>       0.00462963 </v>
   <v>       0.00231481 </v>
   <v>       0.00231481 </v>
   <v>       0.00462963 </v>
   <v>       0.00462963 </v>
   <v>       0.00462963 </v>
   <v>       0.00462963 </v>
   <v>       0.00462963 </v>
   <v>       0.00462963 </v>
   <v>       0.00462963 </v>
   <v>       0.00462963 </v>
   <v>       0.00462963 </v>
   <v>       0.00462963 </v>
   <v>       0.00462963 </v>
   <v>       0.00231481 </v>
   <v>       0.00231481 </v>
   <v>       0.00462963 </v>
   <v>       0.00462963 </v>
   <v>       0.00462963 </v>
   <v>       0.00462963 </v>
   <v>       0.00462963 </v>
   <v>       0.00462963 </v>
   <v>       0.00462963 </v>
   <v>       0.00462963 </v>
   <v>       0.00462963 </v>
   <v>       0.00462963 </v>
   <v>       0.00462963 </v>
   <v>       0.00231481 </v>
   <v>       0.00231481 </v>
   <v>       0.00462963 </v>
   <v>       0.00462963 </v>
   <v>       0.00462963 </v>
   <v>       0.00462963 </v>
   <v>       0.00462963 </v>
   <v>       0.00462963 </v>
   <v>       0.00462963 </v>
   <v>       0.00462963 </v>
   <v>       0.00462963 </v>
   <v>       0.00462963 </v>
   <v>       0.00462963 </v>
   <v>       0.00231481 </v>
   <v>       0.00231481 </v>
   <v>       0.00462963 </v>
   <v>       0.00462963 </v>
   <v>       0.00462963 </v>
   <v>       0.00462963 </v>
   <v>       0.00462963 </v>
   <v>       0.00462963 </v>
   <v>       0.00462963 </v>
   <v>       0.00462963 </v>
   <v>       0.00462963 </v>
   <v>       0.00462963 </v>
   <v>       0.00462963 </v>
   <v>       0.00231481 </v>
   <v>       0.00231481 </v>
   <v>       0.00462963 </v>
   <v>       0.00462963 </v>
   <v>       0.00462963 </v>
   <v>       0.00462963 </v>
   <v>       0.00462963 </v>
   <v>       0.00462963 </v>
   <v>       0.00462963 </v>
   <v>       0.00462963 </v>
   <v>       0.00462963 </v>
   <v>       0.00462963 </v>
   <v>       0.00462963 </v>
   <v>       0.00231481 </v>
   <v>       0.00231481 </v>
   <v>       0.00462963 </v>
   <v>       0.00462963 </v>
   <v>       0.00462963 </v>
   <v>       0.00462963 </v>
   <v>       0.00462963 </v>
   <v>       0.00462963 </v>
   <v>       0.00462963 </v>
   <v>       0.00462963 </v>
   <v>       0.00462963 </v>
   <v>       0.00462963 </v>
   <v>       0.00462963 </v>
   <v>       0.00231481 </v>
   <v>       0.00231481 </v>
   <v>       0.00462963 </v>
   <v>       0.00462963 </v>
   <v>       0.00462963 </v>
   <v>       0.00462963 </v>
   <v>       0.00462963 </v>
   <v>       0.00462963 </v>
   <v>       0.00462963 </v>
   <v>       0.00462963 </v>
   <v>       0.00462963 </v>
   <v>       0.00462963 </v>
   <v>       0.00462963 </v>
   <v>       0.00231481 </v>
   <v>       0.00231481 </v>
   <v>       0.00462963 </v>
   <v>       0.00462963 </v>
   <v>       0.00462963 </v>
   <v>       0.00462963 </v>
   <v>       0.00462963 </v>
   <v>       0.00462963 </v>
   <v>       0.00462963 </v>
   <v>       0.00462963 </v>
   <v>       0.00462963 </v>
   <v>       0.00462963 </v>
   <v>       0.00462963 </v>
   <v>       0.00231481 </v>
   <v>       0.00231481 </v>
   <v>       0.00462963 </v>
   <v>       0.00462963 </v>
   <v>       0.00462963 </v>
   <v>       0.00462963 </v>
   <v>       0.00462963 </v>
   <v>       0.00462963 </v>
   <v>       0.00462963 </v>
   <v>       0.00462963 </v>
   <v>       0.00462963 </v>
   <v>       0.00462963 </v>
   <v>       0.00462963 </v>
   <v>       0.00231481 </v>
   <v>       0.00115741 </v>
   <v>       0.00231481 </v>
   <v>       0.00231481 </v>
   <v>       0.00231481 </v>
   <v>       0.00231481 </v>
   <v>       0.00231481 </v>
   <v>       0.00231481 </v>
   <v>       0.00231481 </v>
   <v>       0.00231481 </v>
   <v>       0.00231481 </v>
   <v>       0.00231481 </v>
   <v>       0.00231481 </v>
   <v>       0.00115741 </v>
  </varray>
 </kpoints>
 <parameters>
  <separator name="general" >
   <i type="string" name="SYSTEM">gr</i>
   <i type="logical" name="LCOMPAT"> F  </i>
  </separator>
  <separator name="electronic" >
   <i type="string" name="PREC">accura</i>
   <i name="ENMAX">   2000.00000000</i>
   <i name="ENAUG">    644.87300000</i>
   <i name="EDIFF">      0.00000000</i>
   <i type="int" name="IALGO">    68</i>
   <i type="int" name="IWAVPR">    11</i>
   <i type="int" name="NBANDS">    12</i>
   <i name="NELECT">     16.00000000</i>
   <i type="int" name="TURBO">     0</i>
   <i type="int" name="IRESTART">     0</i>
   <i type="int" name="NREBOOT">     0</i>
   <i type="int" name="NMIN">     0</i>
   <i name="EREF">      0.00000000</i>
   <separator name="electronic smearing" >
    <i type="int" name="ISMEAR">     0</i>
    <i name="SIGMA">      0.05000000</i>
    <i name="KSPACING">      0.50000000</i>
    <i type="logical" name="KGAMMA"> T  </i>
   </separator>
   <separator name="electronic projectors" >
    <i type="logical" name="LREAL"> F  </i>
    <v name="ROPT">      0.00000000</v>
    <i type="int" name="LMAXPAW">  -100</i>
    <i type="int" name="LMAXMIX">     2</i>
    <i type="logical" name="NLSPLINE"> F  </i>
   </separator>
   <separator name="electronic startup" >
    <i type="int" name="ISTART">     0</i>
    <i type="int" name="ICHARG">     2</i>
    <i type="int" name="INIWAV">     1</i>
   </separator>
   <separator name="electronic spin" >
    <i type="int" name="ISPIN">     1</i>
    <i type="logical" name="LNONCOLLINEAR"> F  </i>
    <v name="MAGMOM">      1.00000000      1.00000000      1.00000000      1.00000000</v>
    <i name="NUPDOWN">     -1.00000000</i>
    <i type="logical" name="LSORBIT"> F  </i>
    <v name="SAXIS">      0.00000000      0.00000000      1.00000000</v>
    <i type="logical" name="LSPIRAL"> F  </i>
    <v name="QSPIRAL">      0.00000000      0.00000000      0.00000000</v>
    <i type="logical" name="LZEROZ"> F  </i>
   </separator>
   <separator name="electronic exchange-correlation" >
    <i type="logical" name="LASPH"> F  </i>
    <i type="logical" name="LMETAGGA"> F  </i>
   </separator>
   <separator name="electronic convergence" >
    <i type="int" name="NELM">   100</i>
    <i type="int" name="NELMDL">    -3</i>
    <i type="int" name="NELMIN">     5</i>
    <i name="ENINI">   2000.00000000</i>
    <separator name="electronic convergence detail" >
     <i type="logical" name="LDIAG"> T  </i>
     <i type="logical" name="LSUBROT"> F  </i>
     <i name="WEIMIN">      0.00100000</i>
     <i name="EBREAK">      0.00000000</i>
     <i name="DEPER">      0.30000000</i>
     <i type="int" name="NRMM">     4</i>
     <i name="TIME">      0.40000000</i>
    </separator>
   </separator>
   <separator name="electronic mixer" >
    <i name="AMIX">      0.40000000</i>
    <i name="BMIX">      1.00000000</i>
    <i name="AMIN">      0.10000000</i>
    <i name="AMIX_MAG">      1.60000000</i>
    <i name="BMIX_MAG">      1.00000000</i>
    <separator name="electronic mixer details" >
     <i type="int" name="IMIX">     4</i>
     <i type="int" name="MAXMIX">   -45</i>
     <i name="WC">    100.00000000</i>
     <i type="int" name="INIMIX">     1</i>
     <i type="int" name="MIXPRE">     1</i>
     <i type="int" name="MREMOVE">     5</i>
    </separator>
   </separator>
   <separator name="electronic dipolcorrection" >
    <i type="logical" name="LDIPOL"> F  </i>
    <i type="logical" name="LMONO"> F  </i>
    <i type="int" name="IDIPOL">     0</i>
    <i name="EPSILON">      1.00000000</i>
    <v name="DIPOL">   -100.00000000   -100.00000000   -100.00000000</v>
    <i name="EFIELD">      0.00000000</i>
   </separator>
  </separator>
  <separator name="grids" >
   <i type="int" name="NGX">    64</i>
   <i type="int" name="NGY">    36</i>
   <i type="int" name="NGZ">   288</i>
   <i type="int" name="NGXF">   128</i>
   <i type="int" name="NGYF">    72</i>
   <i type="int" name="NGZF">   576</i>
   <i type="logical" name="ADDGRID"> F  </i>
  </separator>
  <separator name="ionic" >
   <i type="int" name="NSW">   400</i>
   <i type="int" name="IBRION">     1</i>
   <i type="int" name="ISIF">     2</i>
   <i name="PSTRESS">      0.00000000</i>
   <i name="EDIFFG">     -0.00000100</i>
   <i type="int" name="NFREE">     0</i>
   <i name="POTIM">      0.50000000</i>
   <i name="SMASS">     -3.00000000</i>
   <i name="SCALEE">      1.00000000</i>
  </separator>
  <separator name="ionic md" >
   <i name="TEBEG">      0.00010000</i>
   <i name="TEEND">      0.00010000</i>
   <i type="int" name="NBLOCK">     1</i>
   <i type="int" name="KBLOCK">   400</i>
   <i type="int" name="NPACO">   256</i>
   <i name="APACO">     16.00000000</i>
  </separator>
  <separator name="symmetry" >
   <i type="int" name="ISYM">     2</i>
   <i name="SYMPREC">      0.00001000</i>
  </separator>
  <separator name="dos" >
   <i type="logical" name="LORBIT"> F  </i>
   <v name="RWIGS">     -1.00000000</v>
   <i type="int" name="NEDOS">   301</i>
   <i name="EMIN">     10.00000000</i>
   <i name="EMAX">    -10.00000000</i>
   <i name="EFERMI">      0.00000000</i>
  </separator>
  <separator name="writing" >
   <i type="int" name="NWRITE">     2</i>
   <i type="logical" name="LWAVE"> F  </i>
   <i type="logical" name="LCHARG"> F  </i>
   <i type="logical" name="LPARD"> F  </i>
   <i type="logical" name="LVTOT"> F  </i>
   <i type="logical" name="LVHAR"> F  </i>
   <i type="logical" name="LELF"> F  </i>
   <i type="logical" name="LOPTICS"> F  </i>
   <v name="STM">      0.00000000      0.00000000      0.00000000      0.00000000      0.00000000      0.00000000      0.00000000</v>
  </separator>
  <separator name="performance" >
   <i type="int" name="NPAR">     4</i>
   <i type="int" name="NSIM">     4</i>
   <i type="int" name="NBLK">    -1</i>
   <i type="logical" name="LPLANE"> T  </i>
   <i type="logical" name="LSCALAPACK"> F  </i>
   <i type="logical" name="LSCAAWARE"> F  </i>
   <i type="logical" name="LSCALU"> F  </i>
   <i type="logical" name="LASYNC"> F  </i>
   <i type="logical" name="LORBITALREAL"> F  </i>
  </separator>
  <separator name="miscellaneous" >
   <i type="int" name="IDIOT">     3</i>
   <i type="logical" name="LMUSIC"> F  </i>
   <v name="POMASS">     12.01100000</v>
   <v name="DARWINR">      0.00000000</v>
   <v name="DARWINV">      1.00000000</v>
   <i type="logical" name="LCORR"> T  </i>
  </separator>
  <i type="logical" name="GGA_COMPAT"> T  </i>
  <i type="logical" name="LBERRY"> F  </i>
  <i type="int" name="ICORELEVEL">     0</i>
  <i type="logical" name="LDAU"> F  </i>
  <i type="int" name="I_CONSTRAINED_M">     0</i>
  <separator name="electronic exchange-correlation" >
   <i type="string" name="GGA">--</i>
   <i type="int" name="VOSKOWN">     0</i>
   <i type="logical" name="LHFCALC"> F  </i>
   <i type="string" name="PRECFOCK"></i>
   <i type="logical" name="LSYMGRAD"> F  </i>
   <i type="logical" name="LHFONE"> F  </i>
   <i type="logical" name="LRHFCALC"> F  </i>
   <i type="logical" name="LTHOMAS"> F  </i>
   <i type="logical" name="LMODELHF"> F  </i>
   <i name="ENCUT4O">     -1.00000000</i>
   <i type="int" name="EXXOEP">     0</i>
   <i type="int" name="FOURORBIT">     0</i>
   <i name="AEXX">      0.00000000</i>
   <i name="HFALPHA">      0.00000000</i>
   <i name="MCALPHA">      0.00000000</i>
   <i name="ALDAX">      1.00000000</i>
   <i name="AGGAX">      1.00000000</i>
   <i name="ALDAC">      1.00000000</i>
   <i name="AGGAC">      1.00000000</i>
   <i type="int" name="NKREDX">     1</i>
   <i type="int" name="NKREDY">     1</i>
   <i type="int" name="NKREDZ">     1</i>
   <i type="logical" name="SHIFTRED"> F  </i>
   <i type="logical" name="ODDONLY"> F  </i>
   <i type="logical" name="EVENONLY"> F  </i>
   <i type="int" name="LMAXFOCK">     0</i>
   <i type="int" name="NMAXFOCKAE">     0</i>
   <i type="logical" name="LFOCKAEDFT"> F  </i>
   <i name="HFSCREEN">      0.00000000</i>
   <i name="HFSCREENC">      0.00000000</i>
   <i type="int" name="NBANDSGWLOW">     0</i>
  </separator>
  <separator name="vdW DFT" >
   <i type="logical" name="LUSE_VDW"> F  </i>
   <i name="Zab_VDW">     -0.84910000</i>
   <i name="PARAM1">      0.12340000</i>
   <i name="PARAM2">      1.00000000</i>
   <i name="PARAM3">      0.00000000</i>
  </separator>
  <separator name="model GW" >
   <i type="int" name="MODEL_GW">     0</i>
   <i name="MODEL_EPS0">     31.62568521</i>
   <i name="MODEL_ALPHA">      1.00000000</i>
  </separator>
  <separator name="linear response parameters" >
   <i type="logical" name="LEPSILON"> F  </i>
   <i type="logical" name="LRPA"> F  </i>
   <i type="logical" name="LNABLA"> F  </i>
   <i type="logical" name="LVEL"> F  </i>
   <i type="int" name="KINTER">     0</i>
   <i name="CSHIFT">      0.10000000</i>
   <i name="OMEGAMAX">     -1.00000000</i>
   <i name="DEG_THRESHOLD">      0.00200000</i>
  </separator>
  <separator name="orbital magnetization" >
   <i type="logical" name="NUCIND"> F  </i>
   <v name="MAGPOS">      0.00000000      0.00000000      0.00000000</v>
   <i type="logical" name="LNICSALL"> T  </i>
   <i type="logical" name="ORBITALMAG"> F  </i>
   <i type="logical" name="LMAGBLOCH"> F  </i>
   <i type="logical" name="LCHIMAG"> F  </i>
   <i type="logical" name="LGAUGE"> T  </i>
   <i type="int" name="MAGATOM">     0</i>
   <v name="MAGDIPOL">      0.00000000      0.00000000      0.00000000</v>
   <v name="AVECCONST">      0.00000000      0.00000000      0.00000000</v>
  </separator>
  <separator name="response functions" >
   <i type="logical" name="LADDER"> F  </i>
   <i type="logical" name="LFXC"> F  </i>
   <i type="logical" name="LHARTREE"> T  </i>
   <i type="int" name="IBSE">     0</i>
   <i type="logical" name="LTCTE"> F  </i>
   <i type="logical" name="LTETE"> F  </i>
   <i type="logical" name="LTRIPLET"> F  </i>
   <i type="logical" name="LFXCEPS"> F  </i>
   <i type="logical" name="LFXHEG"> F  </i>
   <i type="logical" name="L2ORDER"> F  </i>
   <i type="logical" name="LUSEW"> F  </i>
   <i name="ENCUTGW">     -2.00000000</i>
   <i name="ENCUTGWSOFT">     -2.00000000</i>
   <i name="ENCUTLF">     -1.00000000</i>
   <i type="int" name="LMAXMP2">    -1</i>
   <i name="SCISSOR">      0.00000000</i>
   <i type="int" name="NOMEGA">     0</i>
   <i type="int" name="NOMEGAR">     0</i>
   <i type="int" name="NBANDSGW">    -1</i>
   <i type="int" name="NBANDSO">    -1</i>
   <i type="int" name="NBANDSV">    -1</i>
   <i type="int" name="NELM">   100</i>
   <i type="int" name="DIM">     3</i>
   <i type="int" name="ANTIRES">     0</i>
   <i name="OMEGAMAX">    -30.00000000</i>
   <i name="OMEGAMIN">    -30.00000000</i>
   <i name="OMEGATL">   -200.00000000</i>
   <i type="int" name="OMEGAGRID">     0</i>
   <i name="CSHIFT">     -0.10000000</i>
   <i type="logical" name="SELFENERGY"> F  </i>
   <i type="logical" name="LSPECTRAL"> F  </i>
   <i type="logical" name="ODDONLYGW"> F  </i>
   <i type="logical" name="EVENONLYGW"> F  </i>
   <i type="int" name="NKREDLFX">     1</i>
   <i type="int" name="NKREDLFY">     1</i>
   <i type="int" name="NKREDLFZ">     1</i>
   <i type="int" name="MAXMEM">  1800</i>
   <i type="int" name="TELESCOPE">     0</i>
   <i type="int" name="TAUPAR">     1</i>
  </separator>
  <separator name="External order field" >
   <i name="OFIELD_KAPPA">      0.00000000</i>
   <v name="OFIELD_K">      0.00000000      0.00000000      0.00000000</v>
   <i name="OFIELD_Q6_NEAR">      0.00000000</i>
   <i name="OFIELD_Q6_FAR">      0.00000000</i>
   <i name="OFIELD_A">      0.00000000</i>
  </separator>
 </parameters>
 <atominfo>
  <atoms>       4 </atoms>
  <types>       1 </types>
  <array name="atoms" >
   <dimension dim="1">ion</dimension>
   <field type="string">element</field>
   <field type="int">atomtype</field>
   <set>
    <rc><c>C </c><c>   1</c></rc>
    <rc><c>C </c><c>   1</c></rc>
    <rc><c>C </c><c>   1</c></rc>
    <rc><c>C </c><c>   1</c></rc>
   </set>
  </array>
  <array name="atomtypes" >
   <dimension dim="1">type</dimension>
   <field type="int">atomspertype</field>
   <field type="string">element</field>
   <field>mass</field>
   <field>valence</field>
   <field type="string">pseudopotential</field>
   <set>
    <rc><c>   4</c><c>C </c><c>     12.01100000</c><c>      4.00000000</c><c> PAW_PBE C 08Apr2002                    </c></rc>
   </set>
  </array>
 </atominfo>
 <structure name="initialpos" >
  <crystal>
   <varray name="basis" >
    <v>       4.40232011       0.00000000       0.00000000 </v>
    <v>       0.00000000       2.45536044       0.00000000 </v>
    <v>       0.00000000       0.00000000      19.50526308 </v>
   </varray>
   <i name="volume">    210.83790140 </i>
   <varray name="rec_basis" >
    <v>       0.22715295       0.00000000       0.00000000 </v>
    <v>       0.00000000       0.40727218       0.00000000 </v>
    <v>       0.00000000       0.00000000       0.05126821 </v>
   </varray>
  </crystal>
  <varray name="positions" >
   <v>       0.99938979       0.00000000       0.00000000 </v>
   <v>       0.16727688       0.50000000       0.00000000 </v>
   <v>       0.49938979       0.50000000       0.00000000 </v>
   <v>       0.66727688       0.00000000       0.00000000 </v>
  </varray>
 </structure>
 <calculation>
  <scstep>
   <time name="dav">  290.04  290.21</time>
   <time name="total">  292.56  292.76</time>
   <energy>
    <i name="alphaZ">      6.18334092 </i>
    <i name="ewald">   2421.32203840 </i>
    <i name="hartreedc">  -2851.65782601 </i>
    <i name="XCdc">     54.75862781 </i>
    <i name="pawpsdc">    151.32577238 </i>
    <i name="pawaedc">   -155.92769107 </i>
    <i name="eentropy">     -0.00135956 </i>
    <i name="bandstr">    -27.95438126 </i>
    <i name="atom">    588.62352690 </i>
    <i name="e_fr_energy">    186.67204852 </i>
    <i name="e_wo_entrp">    186.67340808 </i>
    <i name="e_0_energy">    186.67272830 </i>
   </energy>
  </scstep>
  <scstep>
   <time name="dav">  435.71  436.18</time>
   <time name="total">  435.71  436.19</time>
   <energy>
    <i name="e_fr_energy">     -9.39126217 </i>
    <i name="e_wo_entrp">     -9.39100573 </i>
    <i name="e_0_energy">     -9.39113395 </i>
   </energy>
  </scstep>
  <scstep>
   <time name="dav">  340.23  340.63</time>
   <time name="total">  370.04  370.55</time>
   <energy>
    <i name="e_fr_energy">    -38.00823437 </i>
    <i name="e_wo_entrp">    -38.00823437 </i>
    <i name="e_0_energy">    -38.00823437 </i>
   </energy>
  </scstep>
  <scstep>
   <time name="diag">   78.39   78.42</time>
   <time name="diis">  318.46  318.54</time>
   <time name="orth">    3.07    3.07</time>
   <time name="total">  432.27  432.39</time>
   <energy>
    <i name="e_fr_energy">    -37.52830757 </i>
    <i name="e_wo_entrp">    -37.52830757 </i>
    <i name="e_0_energy">    -37.52830757 </i>
   </energy>
  </scstep>
  <scstep>
   <time name="diag">   78.55   78.56</time>
   <time name="diis">  321.41  321.47</time>
   <time name="orth">    3.07    3.07</time>
   <time name="total">  435.29  435.54</time>
   <energy>
    <i name="e_fr_energy">    -36.83647694 </i>
    <i name="e_wo_entrp">    -36.83647694 </i>
    <i name="e_0_energy">    -36.83647694 </i>
   </energy>
  </scstep>
  <scstep>
   <time name="diag">   78.13   78.42</time>
   <time name="diis">  351.64  352.51</time>
   <time name="orth">    3.09    3.09</time>
   <time name="total">  465.21  466.61</time>
   <energy>
    <i name="e_fr_energy">    -36.83866777 </i>
    <i name="e_wo_entrp">    -36.83866777 </i>
    <i name="e_0_energy">    -36.83866777 </i>
   </energy>
  </scstep>
  <scstep>
   <time name="diag">   78.52   78.54</time>
   <time name="diis">  321.21  321.48</time>
   <time name="orth">    3.09    3.09</time>
   <time name="total">  435.13  435.50</time>
   <energy>
    <i name="e_fr_energy">    -36.82989045 </i>
    <i name="e_wo_entrp">    -36.82989045 </i>
    <i name="e_0_energy">    -36.82989045 </i>
   </energy>
  </scstep>
  <scstep>
   <time name="diag">   78.43   78.45</time>
   <time name="diis">  321.88  321.94</time>
   <time name="orth">    3.11    3.11</time>
   <time name="total">  435.66  435.86</time>
   <energy>
    <i name="e_fr_energy">    -36.82545430 </i>
    <i name="e_wo_entrp">    -36.82545430 </i>
    <i name="e_0_energy">    -36.82545430 </i>
   </energy>
  </scstep>
  <scstep>
   <time name="diag">   78.51   78.57</time>
   <time name="diis">  317.37  317.43</time>
   <time name="orth">    3.07    3.07</time>
   <time name="total">  431.28  431.57</time>
   <energy>
    <i name="e_fr_energy">    -36.82517237 </i>
    <i name="e_wo_entrp">    -36.82517237 </i>
    <i name="e_0_energy">    -36.82517237 </i>
   </energy>
  </scstep>
  <scstep>
   <time name="diag">   78.48   78.49</time>
   <time name="diis">  317.48  317.59</time>
   <time name="orth">    3.08    3.08</time>
   <time name="total">  431.42  431.56</time>
   <energy>
    <i name="e_fr_energy">    -36.82519661 </i>
    <i name="e_wo_entrp">    -36.82519661 </i>
    <i name="e_0_energy">    -36.82519661 </i>
   </energy>
  </scstep>
  <scstep>
   <time name="diag">   78.51   78.52</time>
   <time name="diis">  319.35  319.68</time>
   <time name="orth">    3.07    3.07</time>
   <time name="total">  433.17  433.60</time>
   <energy>
    <i name="e_fr_energy">    -36.82736747 </i>
    <i name="e_wo_entrp">    -36.82736747 </i>
    <i name="e_0_energy">    -36.82736747 </i>
   </energy>
  </scstep>
  <scstep>
   <time name="diag">   78.44   78.46</time>
   <time name="diis">  320.04  320.10</time>
   <time name="orth">    3.09    3.09</time>
   <time name="total">  433.91  434.20</time>
   <energy>
    <i name="e_fr_energy">    -36.82791218 </i>
    <i name="e_wo_entrp">    -36.82791218 </i>
    <i name="e_0_energy">    -36.82791218 </i>
   </energy>
  </scstep>
  <scstep>
   <time name="diag">   78.38   78.43</time>
   <time name="diis">  327.92  328.21</time>
   <time name="orth">    3.07    3.07</time>
   <time name="total">  441.76  442.13</time>
   <energy>
    <i name="e_fr_energy">    -36.82814699 </i>
    <i name="e_wo_entrp">    -36.82814699 </i>
    <i name="e_0_energy">    -36.82814699 </i>
   </energy>
  </scstep>
  <scstep>
   <time name="diag">   78.47   78.53</time>
   <time name="diis">  326.15  326.46</time>
   <time name="orth">    3.08    3.09</time>
   <time name="total">  440.05  440.47</time>
   <energy>
    <i name="e_fr_energy">    -36.82823012 </i>
    <i name="e_wo_entrp">    -36.82823012 </i>
    <i name="e_0_energy">    -36.82823012 </i>
   </energy>
  </scstep>
  <scstep>
   <time name="diag">   78.27   78.47</time>
   <time name="diis">  319.30  319.91</time>
   <time name="orth">    3.07    3.07</time>
   <time name="total">  432.78  433.78</time>
   <energy>
    <i name="e_fr_energy">    -36.82824256 </i>
    <i name="e_wo_entrp">    -36.82824256 </i>
    <i name="e_0_energy">    -36.82824256 </i>
   </energy>
  </scstep>
  <scstep>
   <time name="diag">   78.27   78.52</time>
   <time name="diis">  317.46  318.82</time>
   <time name="orth">    3.08    3.11</time>
   <time name="total">  430.79  432.77</time>
   <energy>
    <i name="e_fr_energy">    -36.82825615 </i>
    <i name="e_wo_entrp">    -36.82825615 </i>
    <i name="e_0_energy">    -36.82825615 </i>
   </energy>
  </scstep>
  <scstep>
   <time name="diag">   77.75   78.50</time>
   <time name="diis">  315.29  317.73</time>
   <time name="orth">    3.07    3.07</time>
   <time name="total">  428.23  431.75</time>
   <energy>
    <i name="e_fr_energy">    -36.82826222 </i>
    <i name="e_wo_entrp">    -36.82826222 </i>
    <i name="e_0_energy">    -36.82826222 </i>
   </energy>
  </scstep>
  <scstep>
   <time name="diag">   78.07   78.51</time>
   <time name="diis">  320.60  321.58</time>
   <time name="orth">    3.07    3.07</time>
   <time name="total">  433.96  435.55</time>
   <energy>
    <i name="e_fr_energy">    -36.82826324 </i>
    <i name="e_wo_entrp">    -36.82826324 </i>
    <i name="e_0_energy">    -36.82826324 </i>
   </energy>
  </scstep>
  <scstep>
   <time name="diag">   78.30   78.43</time>
   <time name="diis">  295.24  295.77</time>
   <time name="orth">    3.07    3.07</time>
   <time name="total">  408.68  409.68</time>
   <energy>
    <i name="e_fr_energy">    -36.82826394 </i>
    <i name="e_wo_entrp">    -36.82826394 </i>
    <i name="e_0_energy">    -36.82826394 </i>
   </energy>
  </scstep>
  <scstep>
   <time name="diag">   77.85   78.49</time>
   <time name="diis">  252.28  252.81</time>
   <time name="orth">    3.08    3.09</time>
   <time name="total">  365.47  366.75</time>
   <energy>
    <i name="e_fr_energy">    -36.82826396 </i>
    <i name="e_wo_entrp">    -36.82826396 </i>
    <i name="e_0_energy">    -36.82826396 </i>
   </energy>
  </scstep>
  <scstep>
   <time name="diag">   78.42   78.43</time>
   <time name="diis">  239.61  239.70</time>
   <time name="orth">    3.08    3.08</time>
   <time name="total">  353.53  353.68</time>
   <energy>
    <i name="e_fr_energy">    -36.82826397 </i>
    <i name="e_wo_entrp">    -36.82826397 </i>
    <i name="e_0_energy">    -36.82826397 </i>
   </energy>
  </scstep>
  <scstep>
   <time name="diag">   78.43   78.48</time>
   <time name="diis">  218.62  218.94</time>
   <time name="orth">    3.08    3.10</time>
   <time name="total">  332.35  332.98</time>
   <energy>
    <i name="e_fr_energy">    -36.82826397 </i>
    <i name="e_wo_entrp">    -36.82826397 </i>
    <i name="e_0_energy">    -36.82826397 </i>
   </energy>
  </scstep>
  <scstep>
   <time name="diag">   78.02   78.41</time>
   <time name="diis">  213.21  213.65</time>
   <time name="orth">    3.08    3.08</time>
   <time name="total">  326.57  327.70</time>
   <energy>
    <i name="e_fr_energy">    -36.82826397 </i>
    <i name="e_wo_entrp">    -36.82826397 </i>
    <i name="e_0_energy">    -36.82826397 </i>
   </energy>
  </scstep>
  <scstep>
   <time name="diag">   78.37   78.38</time>
   <time name="diis">  197.94  198.29</time>
   <time name="orth">    3.10    3.10</time>
   <time name="total">  311.80  312.17</time>
   <energy>
    <i name="e_fr_energy">    -36.82826397 </i>
    <i name="e_wo_entrp">    -36.82826397 </i>
    <i name="e_0_energy">    -36.82826397 </i>
   </energy>
  </scstep>
  <scstep>
   <time name="diag">   78.36   78.37</time>
   <time name="diis">  189.88  189.96</time>
   <time name="orth">    3.10    3.10</time>
   <time name="total">  303.77  304.02</time>
   <energy>
    <i name="e_fr_energy">    -36.82826397 </i>
    <i name="e_wo_entrp">    -36.82826397 </i>
    <i name="e_0_energy">    -36.82826397 </i>
   </energy>
  </scstep>
  <scstep>
   <time name="diag">   78.34   78.37</time>
   <time name="diis">  181.95  182.12</time>
   <time name="orth">    3.10    3.10</time>
   <time name="total">  265.82  266.03</time>
   <energy>
    <i name="alphaZ">      6.18334092 </i>
    <i name="ewald">   2421.32203840 </i>
    <i name="hartreedc">  -2915.67556922 </i>
    <i name="XCdc">     57.06225123 </i>
    <i name="pawpsdc">    267.13695135 </i>
    <i name="pawaedc">   -272.24090087 </i>
    <i name="eentropy">     -0.00000000 </i>
    <i name="bandstr">   -189.23990269 </i>
    <i name="atom">    588.62352690 </i>
    <i name="e_fr_energy">    -36.82826397 </i>
    <i name="e_wo_entrp">    -36.82826397 </i>
    <i name="e_0_energy">    -36.82826397 </i>
   </energy>
  </scstep>
  <structure>
   <crystal>
    <varray name="basis" >
     <v>       4.40232011       0.00000000       0.00000000 </v>
     <v>       0.00000000       2.45536044       0.00000000 </v>
     <v>       0.00000000       0.00000000      19.50526308 </v>
    </varray>
    <i name="volume">    210.83790140 </i>
    <varray name="rec_basis" >
     <v>       0.22715295       0.00000000       0.00000000 </v>
     <v>       0.00000000       0.40727218       0.00000000 </v>
     <v>       0.00000000       0.00000000       0.05126821 </v>
    </varray>
   </crystal>
   <varray name="positions" >
    <v>       0.99938979       0.00000000       0.00000000 </v>
    <v>       0.16727688       0.50000000       0.00000000 </v>
    <v>       0.49938979       0.50000000       0.00000000 </v>
    <v>       0.66727688       0.00000000       0.00000000 </v>
   </varray>
  </structure>
  <varray name="forces" >
   <v>      -0.00054053      -0.00000000      -0.00000000 </v>
   <v>       0.00054053       0.00000000       0.00000000 </v>
   <v>      -0.00054053       0.00000000      -0.00000000 </v>
   <v>       0.00054053      -0.00000000       0.00000000 </v>
  </varray>
  <varray name="stress" >
   <v>     -49.36473327       0.00000000       0.00000000 </v>
   <v>       0.00000000       0.00477520       0.00000000 </v>
   <v>       0.00000000       0.00000000      -0.01012439 </v>
  </varray>
  <energy>
   <i name="e_fr_energy">    -36.82826397 </i>
   <i name="e_wo_entrp">    -36.82826397 </i>
   <i name="e_0_energy">     -0.00000000 </i>
  </energy>
  <time name="totalsc">10407.7910426.69</time>
 </calculation>
 <calculation>
  <scstep>
   <time name="dav">  301.61  302.43</time>
   <time name="total">  333.94  334.78</time>
   <energy>
    <i name="alphaZ">      6.18334092 </i>
    <i name="ewald">   2421.32136646 </i>
    <i name="hartreedc">  -2915.67527320 </i>
    <i name="XCdc">     57.06223208 </i>
    <i name="pawpsdc">    267.13695463 </i>
    <i name="pawaedc">   -272.24090416 </i>
    <i name="eentropy">     -0.00000000 </i>
    <i name="bandstr">   -189.23950753 </i>
    <i name="atom">    588.62352690 </i>
    <i name="e_fr_energy">    -36.82826390 </i>
    <i name="e_wo_entrp">    -36.82826390 </i>
    <i name="e_0_energy">    -36.82826390 </i>
   </energy>
  </scstep>
  <scstep>
   <time name="diag">   78.45   78.46</time>
   <time name="diis">  316.95  317.06</time>
   <time name="orth">    3.08    3.08</time>
   <time name="total">  430.85  430.98</time>
   <energy>
    <i name="e_fr_energy">    -36.82826390 </i>
    <i name="e_wo_entrp">    -36.82826390 </i>
    <i name="e_0_energy">    -36.82826390 </i>
   </energy>
  </scstep>
  <scstep>
   <time name="diag">   78.48   78.50</time>
   <time name="diis">  322.80  322.87</time>
   <time name="orth">    3.10    3.10</time>
   <time name="total">  436.77  437.05</time>
   <energy>
    <i name="e_fr_energy">    -36.82826389 </i>
    <i name="e_wo_entrp">    -36.82826389 </i>
    <i name="e_0_energy">    -36.82826389 </i>
   </energy>
  </scstep>
  <scstep>
   <time name="diag">   78.52   78.54</time>
   <time name="diis">  323.17  323.28</time>
   <time name="orth">    3.09    3.09</time>
   <time name="total">  437.19  437.36</time>
   <energy>
    <i name="e_fr_energy">    -36.82826389 </i>
    <i name="e_wo_entrp">    -36.82826389 </i>
    <i name="e_0_energy">    -36.82826389 </i>
   </energy>
  </scstep>
  <scstep>
   <time name="diag">   78.47   78.49</time>
   <time name="diis">  218.78  218.88</time>
   <time name="orth">    3.09    3.09</time>
   <time name="total">  332.80  332.94</time>
   <energy>
    <i name="e_fr_energy">    -36.82826389 </i>
    <i name="e_wo_entrp">    -36.82826389 </i>
    <i name="e_0_energy">    -36.82826389 </i>
   </energy>
  </scstep>
  <scstep>
   <time name="diag">   78.49   78.51</time>
   <time name="diis">  207.54  207.59</time>
   <time name="orth">    3.10    3.10</time>
   <time name="total">  321.56  321.63</time>
   <energy>
    <i name="e_fr_energy">    -36.82826389 </i>
    <i name="e_wo_entrp">    -36.82826389 </i>
    <i name="e_0_energy">    -36.82826389 </i>
   </energy>
  </scstep>
  <scstep>
   <time name="diag">   78.42   78.44</time>
   <time name="diis">  203.43  203.51</time>
   <time name="orth">    3.10    3.10</time>
   <time name="total">  287.40  287.52</time>
   <energy>
    <i name="alphaZ">      6.18334092 </i>
    <i name="ewald">   2421.32136646 </i>
    <i name="hartreedc">  -2915.67502541 </i>
    <i name="XCdc">     57.06222135 </i>
    <i name="pawpsdc">    267.13582794 </i>
    <i name="pawaedc">   -272.23977269 </i>
    <i name="eentropy">     -0.00000000 </i>
    <i name="bandstr">   -189.23974936 </i>
    <i name="atom">    588.62352690 </i>
    <i name="e_fr_energy">    -36.82826389 </i>
    <i name="e_wo_entrp">    -36.82826389 </i>
    <i name="e_0_energy">    -36.82826389 </i>
   </energy>
  </scstep>
  <structure>
   <crystal>
    <varray name="basis" >
     <v>       4.40232011       0.00000000       0.00000000 </v>
     <v>       0.00000000       2.45536044       0.00000000 </v>
     <v>       0.00000000       0.00000000      19.50526308 </v>
    </varray>
    <i name="volume">    210.83790140 </i>
    <varray name="rec_basis" >
     <v>       0.22715295       0.00000000       0.00000000 </v>
     <v>       0.00000000       0.40727218       0.00000000 </v>
     <v>       0.00000000       0.00000000       0.05126821 </v>
    </varray>
   </crystal>
   <varray name="positions" >
    <v>       0.99938386      -0.00000000      -0.00000000 </v>
    <v>       0.16728280       0.50000000       0.00000000 </v>
    <v>       0.49938386       0.50000000      -0.00000000 </v>
    <v>       0.66728280      -0.00000000       0.00000000 </v>
   </varray>
  </structure>
  <varray name="forces" >
   <v>       0.00193558       0.00000000      -0.00000000 </v>
   <v>      -0.00193558       0.00000000       0.00000000 </v>
   <v>       0.00193558      -0.00000000      -0.00000000 </v>
   <v>      -0.00193558       0.00000000       0.00000000 </v>
  </varray>
  <varray name="stress" >
   <v>     -49.36175620       0.00000000       0.00000000 </v>
   <v>       0.00000000      -0.00333004       0.00000000 </v>
   <v>       0.00000000       0.00000000      -0.01016084 </v>
  </varray>
  <energy>
   <i name="e_fr_energy">    -36.82826389 </i>
   <i name="e_wo_entrp">    -36.82826389 </i>
   <i name="e_0_energy">     -0.00000000 </i>
  </energy>
  <time name="totalsc"> 2682.55 2684.35</time>
 </calculation>
 <calculation>
  <scstep>
   <time name="dav">  318.88  319.14</time>
   <time name="total">  351.34  351.62</time>
   <energy>
    <i name="alphaZ">      6.18334092 </i>
    <i name="ewald">   2421.32189164 </i>
    <i name="hartreedc">  -2915.67524321 </i>
    <i name="XCdc">     57.06223613 </i>
    <i name="pawpsdc">    267.13582363 </i>
    <i name="pawaedc">   -272.23976836 </i>
    <i name="eentropy">     -0.00000000 </i>
    <i name="bandstr">   -189.24007162 </i>
    <i name="atom">    588.62352690 </i>
    <i name="e_fr_energy">    -36.82826397 </i>
    <i name="e_wo_entrp">    -36.82826397 </i>
    <i name="e_0_energy">    -36.82826397 </i>
   </energy>
  </scstep>
  <scstep>
   <time name="diag">   78.51   78.55</time>
   <time name="diis">  321.02  321.10</time>
   <time name="orth">    3.08    3.08</time>
   <time name="total">  435.07  435.20</time>
   <energy>
    <i name="e_fr_energy">    -36.82826398 </i>
    <i name="e_wo_entrp">    -36.82826398 </i>
    <i name="e_0_energy">    -36.82826398 </i>
   </energy>
  </scstep>
  <scstep>
   <time name="diag">   78.50   78.54</time>
   <time name="diis">  321.82  322.15</time>
   <time name="orth">    3.09    3.10</time>
   <time name="total">  435.73  436.37</time>
   <energy>
    <i name="e_fr_energy">    -36.82826398 </i>
    <i name="e_wo_entrp">    -36.82826398 </i>
    <i name="e_0_energy">    -36.82826398 </i>
   </energy>
  </scstep>
  <scstep>
   <time name="diag">   78.49   78.50</time>
   <time name="diis">  303.92  304.02</time>
   <time name="orth">    3.09    3.10</time>
   <time name="total">  417.90  418.07</time>
   <energy>
    <i name="e_fr_energy">    -36.82826398 </i>
    <i name="e_wo_entrp">    -36.82826398 </i>
    <i name="e_0_energy">    -36.82826398 </i>
   </energy>
  </scstep>
  <scstep>
   <time name="diag">   78.51   78.57</time>
   <time name="diis">  213.47  214.00</time>
   <time name="orth">    3.10    3.10</time>
   <time name="total">  327.45  328.13</time>
   <energy>
    <i name="e_fr_energy">    -36.82826398 </i>
    <i name="e_wo_entrp">    -36.82826398 </i>
    <i name="e_0_energy">    -36.82826398 </i>
   </energy>
  </scstep>
  <scstep>
   <time name="diag">   78.48   78.50</time>
   <time name="diis">  201.38  201.52</time>
   <time name="orth">    3.10    3.10</time>
   <time name="total">  285.37  285.54</time>
   <energy>
    <i name="alphaZ">      6.18334092 </i>
    <i name="ewald">   2421.32189164 </i>
    <i name="hartreedc">  -2915.67543038 </i>
    <i name="XCdc">     57.06224458 </i>
    <i name="pawpsdc">    267.13670611 </i>
    <i name="pawaedc">   -272.24065468 </i>
    <i name="eentropy">     -0.00000000 </i>
    <i name="bandstr">   -189.23988907 </i>
    <i name="atom">    588.62352690 </i>
    <i name="e_fr_energy">    -36.82826398 </i>
    <i name="e_wo_entrp">    -36.82826398 </i>
    <i name="e_0_energy">    -36.82826398 </i>
   </energy>
  </scstep>
  <structure>
   <crystal>
    <varray name="basis" >
     <v>       4.40232011       0.00000000       0.00000000 </v>
     <v>       0.00000000       2.45536044       0.00000000 </v>
     <v>       0.00000000       0.00000000      19.50526308 </v>
    </varray>
    <i name="volume">    210.83790140 </i>
    <varray name="rec_basis" >
     <v>       0.22715295       0.00000000       0.00000000 </v>
     <v>       0.00000000       0.40727218       0.00000000 </v>
     <v>       0.00000000       0.00000000       0.05126821 </v>
    </varray>
   </crystal>
   <varray name="positions" >
    <v>       0.99938849      -0.00000000      -0.00000000 </v>
    <v>       0.16727817       0.50000000       0.00000000 </v>
    <v>       0.49938849       0.50000000      -0.00000000 </v>
    <v>       0.66727817      -0.00000000       0.00000000 </v>
   </varray>
  </structure>
  <varray name="forces" >
   <v>       0.00000092      -0.00000000       0.00000000 </v>
   <v>      -0.00000092       0.00000000      -0.00000000 </v>
   <v>       0.00000092       0.00000000       0.00000000 </v>
   <v>      -0.00000092      -0.00000000      -0.00000000 </v>
  </varray>
  <varray name="stress" >
   <v>     -49.36403178       0.00000000       0.00000000 </v>
   <v>       0.00000000       0.00296311       0.00000000 </v>
   <v>       0.00000000       0.00000000      -0.01009651 </v>
  </varray>
  <energy>
   <i name="e_fr_energy">    -36.82826398 </i>
   <i name="e_wo_entrp">    -36.82826398 </i>
   <i name="e_0_energy">     -0.00000000 </i>
  </energy>
  <time name="totalsc"> 2348.18 2350.39</time>
  <eigenvalues>
   <array>
    <dimension dim="1">band</dimension>
    <dimension dim="2">kpoint</dimension>
    <dimension dim="3">spin</dimension>
    <field>eigene</field>
    <field>occ</field>
    <set>
     <set comment="spin 1">
      <set comment="kpoint 1">
       <r>  -22.0447    1.0000 </r>
       <r>  -17.3035    1.0000 </r>
       <r>  -15.8003    1.0000 </r>
       <r>  -10.1976    1.0000 </r>
       <r>   -8.7353    1.0000 </r>
       <r>   -6.0476    1.0000 </r>
       <r>   -5.7175    1.0000 </r>
       <r>   -5.3806    1.0000 </r>
       <r>   -1.2056    0.0000 </r>
       <r>    0.5493    0.0000 </r>
       <r>    1.3466    0.0000 </r>
       <r>    1.7424    0.0000 </r>
      </set>
      <set comment="kpoint 2">
       <r>  -22.0350    1.0000 </r>
       <r>  -17.4143    1.0000 </r>
       <r>  -15.6745    1.0000 </r>
       <r>  -10.1862    1.0000 </r>
       <r>   -8.7260    1.0000 </r>
       <r>   -6.0922    1.0000 </r>
       <r>   -5.7371    1.0000 </r>
       <r>   -5.4377    1.0000 </r>
       <r>   -1.1328    0.0000 </r>
       <r>    0.5623    0.0000 </r>
       <r>    1.3599    0.0000 </r>
       <r>    1.7558    0.0000 </r>
      </set>
      <set comment="kpoint 3">
       <r>  -22.0060    1.0000 </r>
       <r>  -17.6758    1.0000 </r>
       <r>  -15.3683    1.0000 </r>
       <r>  -10.1519    1.0000 </r>
       <r>   -8.6981    1.0000 </r>
       <r>   -6.2238    1.0000 </r>
       <r>   -5.7948    1.0000 </r>
       <r>   -5.5980    1.0000 </r>
       <r>   -0.9257    0.0000 </r>
       <r>    0.6015    0.0000 </r>
       <r>    1.3996    0.0000 </r>
       <r>    1.7961    0.0000 </r>
      </set>
      <set comment="kpoint 4">
       <r>  -21.9578    1.0000 </r>
       <r>  -17.9965    1.0000 </r>
       <r>  -14.9734    1.0000 </r>
       <r>  -10.0947    1.0000 </r>
       <r>   -8.6519    1.0000 </r>
       <r>   -6.4363    1.0000 </r>
       <r>   -5.8877    1.0000 </r>
       <r>   -5.8352    1.0000 </r>
       <r>   -0.6110    0.0000 </r>
       <r>    0.6668    0.0000 </r>
       <r>    1.4658    0.0000 </r>
       <r>    1.8632    0.0000 </r>
      </set>
      <set comment="kpoint 5">
       <r>  -21.8902    1.0000 </r>
       <r>  -18.3340    1.0000 </r>
       <r>  -14.5325    1.0000 </r>
       <r>  -10.0149    1.0000 </r>
       <r>   -8.5876    1.0000 </r>
       <r>   -6.7208    1.0000 </r>
       <r>   -6.1220    1.0000 </r>
       <r>   -6.0117    1.0000 </r>
       <r>   -0.2169    0.0000 </r>
       <r>    0.7583    0.0000 </r>
       <r>    1.5585    0.0000 </r>
       <r>    1.9572    0.0000 </r>
      </set>
      <set comment="kpoint 6">
       <r>  -21.8035    1.0000 </r>
       <r>  -18.6710    1.0000 </r>
       <r>  -14.0635    1.0000 </r>
       <r>   -9.9125    1.0000 </r>
       <r>   -8.5055    1.0000 </r>
       <r>   -7.0669    1.0000 </r>
       <r>   -6.4365    1.0000 </r>
       <r>   -6.1614    1.0000 </r>
       <r>    0.2336    0.0000 </r>
       <r>    0.8760    0.0000 </r>
       <r>    1.6776    0.0000 </r>
       <r>    2.0780    0.0000 </r>
      </set>
      <set comment="kpoint 7">
       <r>  -21.6977    1.0000 </r>
       <r>  -18.9999    1.0000 </r>
       <r>  -13.5747    1.0000 </r>
       <r>   -9.7877    1.0000 </r>
       <r>   -8.4061    1.0000 </r>
       <r>   -7.4639    1.0000 </r>
       <r>   -6.7635    1.0000 </r>
       <r>   -6.3313    1.0000 </r>
       <r>    0.7238    0.0000 </r>
       <r>    1.0199    0.0000 </r>
       <r>    1.8231    0.0000 </r>
       <r>    2.2257    0.0000 </r>
      </set>
      <set comment="kpoint 8">
       <r>  -21.5727    1.0000 </r>
       <r>  -19.3168    1.0000 </r>
       <r>  -13.0709    1.0000 </r>
       <r>   -9.6408    1.0000 </r>
       <r>   -8.2902    1.0000 </r>
       <r>   -7.9020    1.0000 </r>
       <r>   -7.0925    1.0000 </r>
       <r>   -6.5158    1.0000 </r>
       <r>    1.1900    0.0000 </r>
       <r>    1.2413    0.0000 </r>
       <r>    1.9947    0.0000 </r>
       <r>    2.4002    0.0000 </r>
      </set>
      <set comment="kpoint 9">
       <r>  -21.4289    1.0000 </r>
       <r>  -19.6195    1.0000 </r>
       <r>  -12.5555    1.0000 </r>
       <r>   -9.4721    1.0000 </r>
       <r>   -8.3721    1.0000 </r>
       <r>   -8.1584    1.0000 </r>
       <r>   -7.4168    1.0000 </r>
       <r>   -6.7099    1.0000 </r>
       <r>    1.3862    0.0000 </r>
       <r>    1.7763    0.0000 </r>
       <r>    2.1924    0.0000 </r>
       <r>    2.6016    0.0000 </r>
      </set>
      <set comment="kpoint 10">
       <r>  -21.2662    1.0000 </r>
       <r>  -19.9067    1.0000 </r>
       <r>  -12.0313    1.0000 </r>
       <r>   -9.2820    1.0000 </r>
       <r>   -8.8664    1.0000 </r>
       <r>   -8.0118    1.0000 </r>
       <r>   -7.7314    1.0000 </r>
       <r>   -6.9088    1.0000 </r>
       <r>    1.6085    0.0000 </r>
       <r>    2.3197    0.0000 </r>
       <r>    2.4157    0.0000 </r>
       <r>    2.8298    0.0000 </r>
      </set>
      <set comment="kpoint 11">
       <r>  -21.0849    1.0000 </r>
       <r>  -20.1774    1.0000 </r>
       <r>  -11.5009    1.0000 </r>
       <r>   -9.3783    1.0000 </r>
       <r>   -9.0709    1.0000 </r>
       <r>   -8.0332    1.0000 </r>
       <r>   -7.8516    1.0000 </r>
       <r>   -7.1084    1.0000 </r>
       <r>    1.8569    0.0000 </r>
       <r>    2.6638    0.0000 </r>
       <r>    2.8578    0.0000 </r>
       <r>    3.0850    0.0000 </r>
      </set>
      <set comment="kpoint 12">
       <r>  -20.8850    1.0000 </r>
       <r>  -20.4310    1.0000 </r>
       <r>  -10.9672    1.0000 </r>
       <r>   -9.9021    1.0000 </r>
       <r>   -8.8396    1.0000 </r>
       <r>   -8.3195    1.0000 </r>
       <r>   -7.6792    1.0000 </r>
       <r>   -7.3053    1.0000 </r>
       <r>    2.1313    0.0000 </r>
       <r>    2.7574    0.0000 </r>
       <r>    2.9341    0.0000 </r>
       <r>    3.3100    0.0000 </r>
      </set>
      <set comment="kpoint 13">
       <r>  -20.6670    1.0000 </r>
       <r>  -20.6670    1.0000 </r>
       <r>  -10.4331    1.0000 </r>
       <r>  -10.4331    1.0000 </r>
       <r>   -8.5888    1.0000 </r>
       <r>   -8.5888    1.0000 </r>
       <r>   -7.4964    1.0000 </r>
       <r>   -7.4964    1.0000 </r>
       <r>    2.4315    0.0000 </r>
       <r>    2.4315    0.0000 </r>
       <r>    3.2135    0.0000 </r>
       <r>    3.2135    0.0000 </r>
      </set>
      <set comment="kpoint 14">
       <r>  -22.0308    1.0000 </r>
       <r>  -17.2914    1.0000 </r>
       <r>  -15.7884    1.0000 </r>
       <r>  -10.1812    1.0000 </r>
       <r>   -8.7989    1.0000 </r>
       <r>   -6.0729    1.0000 </r>
       <r>   -5.7770    1.0000 </r>
       <r>   -5.3639    1.0000 </r>
       <r>   -1.2077    0.0000 </r>
       <r>    0.5680    0.0000 </r>
       <r>    1.3656    0.0000 </r>
       <r>    1.7616    0.0000 </r>
      </set>
      <set comment="kpoint 15">
       <r>  -22.0211    1.0000 </r>
       <r>  -17.4021    1.0000 </r>
       <r>  -15.6628    1.0000 </r>
       <r>  -10.1697    1.0000 </r>
       <r>   -8.7896    1.0000 </r>
       <r>   -6.1179    1.0000 </r>
       <r>   -5.7955    1.0000 </r>
       <r>   -5.4211    1.0000 </r>
       <r>   -1.1349    0.0000 </r>
       <r>    0.5811    0.0000 </r>
       <r>    1.3788    0.0000 </r>
       <r>    1.7750    0.0000 </r>
      </set>
      <set comment="kpoint 16">
       <r>  -21.9922    1.0000 </r>
       <r>  -17.6634    1.0000 </r>
       <r>  -15.3570    1.0000 </r>
       <r>  -10.1354    1.0000 </r>
       <r>   -8.7618    1.0000 </r>
       <r>   -6.2499    1.0000 </r>
       <r>   -5.8512    1.0000 </r>
       <r>   -5.5816    1.0000 </r>
       <r>   -0.9279    0.0000 </r>
       <r>    0.6203    0.0000 </r>
       <r>    1.4186    0.0000 </r>
       <r>    1.8153    0.0000 </r>
      </set>
      <set comment="kpoint 17">
       <r>  -21.9439    1.0000 </r>
       <r>  -17.9839    1.0000 </r>
       <r>  -14.9625    1.0000 </r>
       <r>  -10.0783    1.0000 </r>
       <r>   -8.7155    1.0000 </r>
       <r>   -6.4616    1.0000 </r>
       <r>   -5.9425    1.0000 </r>
       <r>   -5.8192    1.0000 </r>
       <r>   -0.6134    0.0000 </r>
       <r>    0.6856    0.0000 </r>
       <r>    1.4848    0.0000 </r>
       <r>    1.8824    0.0000 </r>
      </set>
      <set comment="kpoint 18">
       <r>  -21.8764    1.0000 </r>
       <r>  -18.3212    1.0000 </r>
       <r>  -14.5221    1.0000 </r>
       <r>   -9.9985    1.0000 </r>
       <r>   -8.6510    1.0000 </r>
       <r>   -6.7438    1.0000 </r>
       <r>   -6.1062    1.0000 </r>
       <r>   -6.0658    1.0000 </r>
       <r>   -0.2198    0.0000 </r>
       <r>    0.7771    0.0000 </r>
       <r>    1.5775    0.0000 </r>
       <r>    1.9764    0.0000 </r>
      </set>
      <set comment="kpoint 19">
       <r>  -21.7897    1.0000 </r>
       <r>  -18.6581    1.0000 </r>
       <r>  -14.0537    1.0000 </r>
       <r>   -9.8962    1.0000 </r>
       <r>   -8.5688    1.0000 </r>
       <r>   -7.0866    1.0000 </r>
       <r>   -6.4208    1.0000 </r>
       <r>   -6.2157    1.0000 </r>
       <r>    0.2300    0.0000 </r>
       <r>    0.8948    0.0000 </r>
       <r>    1.6966    0.0000 </r>
       <r>    2.0972    0.0000 </r>
      </set>
      <set comment="kpoint 20">
       <r>  -21.6839    1.0000 </r>
       <r>  -18.9868    1.0000 </r>
       <r>  -13.5655    1.0000 </r>
       <r>   -9.7714    1.0000 </r>
       <r>   -8.4693    1.0000 </r>
       <r>   -7.4800    1.0000 </r>
       <r>   -6.7478    1.0000 </r>
       <r>   -6.3863    1.0000 </r>
       <r>    0.7192    0.0000 </r>
       <r>    1.0387    0.0000 </r>
       <r>    1.8420    0.0000 </r>
       <r>    2.2449    0.0000 </r>
      </set>
      <set comment="kpoint 21">
       <r>  -21.5590    1.0000 </r>
       <r>  -19.3036    1.0000 </r>
       <r>  -13.0625    1.0000 </r>
       <r>   -9.6246    1.0000 </r>
       <r>   -8.3532    1.0000 </r>
       <r>   -7.9144    1.0000 </r>
       <r>   -7.0769    1.0000 </r>
       <r>   -6.5718    1.0000 </r>
       <r>    1.2088    0.0000 </r>
       <r>    1.2354    0.0000 </r>
       <r>    2.0136    0.0000 </r>
       <r>    2.4194    0.0000 </r>
      </set>
      <set comment="kpoint 22">
       <r>  -21.4151    1.0000 </r>
       <r>  -19.6062    1.0000 </r>
       <r>  -12.5481    1.0000 </r>
       <r>   -9.4559    1.0000 </r>
       <r>   -8.3810    1.0000 </r>
       <r>   -8.2211    1.0000 </r>
       <r>   -7.4011    1.0000 </r>
       <r>   -6.7670    1.0000 </r>
       <r>    1.4050    0.0000 </r>
       <r>    1.7689    0.0000 </r>
       <r>    2.2113    0.0000 </r>
       <r>    2.6208    0.0000 </r>
      </set>
      <set comment="kpoint 23">
       <r>  -21.2525    1.0000 </r>
       <r>  -19.8933    1.0000 </r>
       <r>  -12.0250    1.0000 </r>
       <r>   -9.2658    1.0000 </r>
       <r>   -8.8721    1.0000 </r>
       <r>   -8.0742    1.0000 </r>
       <r>   -7.7157    1.0000 </r>
       <r>   -6.9670    1.0000 </r>
       <r>    1.6273    0.0000 </r>
       <r>    2.3109    0.0000 </r>
       <r>    2.4347    0.0000 </r>
       <r>    2.8490    0.0000 </r>
      </set>
      <set comment="kpoint 24">
       <r>  -21.0712    1.0000 </r>
       <r>  -20.1639    1.0000 </r>
       <r>  -11.4960    1.0000 </r>
       <r>   -9.3812    1.0000 </r>
       <r>   -9.0549    1.0000 </r>
       <r>   -8.0174    1.0000 </r>
       <r>   -7.9135    1.0000 </r>
       <r>   -7.1676    1.0000 </r>
       <r>    1.8757    0.0000 </r>
       <r>    2.6828    0.0000 </r>
       <r>    2.8484    0.0000 </r>
       <r>    3.1042    0.0000 </r>
      </set>
      <set comment="kpoint 25">
       <r>  -20.8714    1.0000 </r>
       <r>  -20.4175    1.0000 </r>
       <r>  -10.9637    1.0000 </r>
       <r>   -9.9026    1.0000 </r>
       <r>   -8.8236    1.0000 </r>
       <r>   -8.3037    1.0000 </r>
       <r>   -7.7406    1.0000 </r>
       <r>   -7.3653    1.0000 </r>
       <r>    2.1501    0.0000 </r>
       <r>    2.7762    0.0000 </r>
       <r>    2.9531    0.0000 </r>
       <r>    3.3104    0.0000 </r>
      </set>
      <set comment="kpoint 26">
       <r>  -20.6534    1.0000 </r>
       <r>  -20.6534    1.0000 </r>
       <r>  -10.4314    1.0000 </r>
       <r>  -10.4314    1.0000 </r>
       <r>   -8.5729    1.0000 </r>
       <r>   -8.5729    1.0000 </r>
       <r>   -7.5572    1.0000 </r>
       <r>   -7.5572    1.0000 </r>
       <r>    2.4503    0.0000 </r>
       <r>    2.4503    0.0000 </r>
       <r>    3.2319    0.0000 </r>
       <r>    3.2331    0.0000 </r>
      </set>
      <set comment="kpoint 27">
       <r>  -21.9892    1.0000 </r>
       <r>  -17.2552    1.0000 </r>
       <r>  -15.7531    1.0000 </r>
       <r>  -10.1319    1.0000 </r>
       <r>   -8.9847    1.0000 </r>
       <r>   -6.1485    1.0000 </r>
       <r>   -5.9505    1.0000 </r>
       <r>   -5.3138    1.0000 </r>
       <r>   -1.2150    0.0000 </r>
       <r>    0.6243    0.0000 </r>
       <r>    1.4224    0.0000 </r>
       <r>    1.8192    0.0000 </r>
      </set>
      <set comment="kpoint 28">
       <r>  -21.9796    1.0000 </r>
       <r>  -17.3656    1.0000 </r>
       <r>  -15.6279    1.0000 </r>
       <r>  -10.1205    1.0000 </r>
       <r>   -8.9754    1.0000 </r>
       <r>   -6.1967    1.0000 </r>
       <r>   -5.9641    1.0000 </r>
       <r>   -5.3714    1.0000 </r>
       <r>   -1.1421    0.0000 </r>
       <r>    0.6374    0.0000 </r>
       <r>    1.4357    0.0000 </r>
       <r>    1.8326    0.0000 </r>
      </set>
      <set comment="kpoint 29">
       <r>  -21.9506    1.0000 </r>
       <r>  -17.6263    1.0000 </r>
       <r>  -15.3231    1.0000 </r>
       <r>  -10.0862    1.0000 </r>
       <r>   -8.9474    1.0000 </r>
       <r>   -6.3322    1.0000 </r>
       <r>   -6.0113    1.0000 </r>
       <r>   -5.5327    1.0000 </r>
       <r>   -0.9353    0.0000 </r>
       <r>    0.6766    0.0000 </r>
       <r>    1.4754    0.0000 </r>
       <r>    1.8729    0.0000 </r>
      </set>
      <set comment="kpoint 30">
       <r>  -21.9024    1.0000 </r>
       <r>  -17.9462    1.0000 </r>
       <r>  -14.9299    1.0000 </r>
       <r>  -10.0292    1.0000 </r>
       <r>   -8.9009    1.0000 </r>
       <r>   -6.5422    1.0000 </r>
       <r>   -6.0970    1.0000 </r>
       <r>   -5.7711    1.0000 </r>
       <r>   -0.6215    0.0000 </r>
       <r>    0.7419    0.0000 </r>
       <r>    1.5416    0.0000 </r>
       <r>    1.9400    0.0000 </r>
      </set>
      <set comment="kpoint 31">
       <r>  -21.8349    1.0000 </r>
       <r>  -18.2829    1.0000 </r>
       <r>  -14.4911    1.0000 </r>
       <r>   -9.9495    1.0000 </r>
       <r>   -8.8362    1.0000 </r>
       <r>   -6.8175    1.0000 </r>
       <r>   -6.2184    1.0000 </r>
       <r>   -6.0587    1.0000 </r>
       <r>   -0.2293    0.0000 </r>
       <r>    0.8334    0.0000 </r>
       <r>    1.6343    0.0000 </r>
       <r>    2.0339    0.0000 </r>
      </set>
      <set comment="kpoint 32">
       <r>  -21.7483    1.0000 </r>
       <r>  -18.6193    1.0000 </r>
       <r>  -14.0244    1.0000 </r>
       <r>   -9.8472    1.0000 </r>
       <r>   -8.7536    1.0000 </r>
       <r>   -7.1503    1.0000 </r>
       <r>   -6.3738    1.0000 </r>
       <r>   -6.3693    1.0000 </r>
       <r>    0.2182    0.0000 </r>
       <r>    0.9511    0.0000 </r>
       <r>    1.7534    0.0000 </r>
       <r>    2.1548    0.0000 </r>
      </set>
      <set comment="kpoint 33">
       <r>  -21.6425    1.0000 </r>
       <r>  -18.9476    1.0000 </r>
       <r>  -13.5384    1.0000 </r>
       <r>   -9.7226    1.0000 </r>
       <r>   -8.6536    1.0000 </r>
       <r>   -7.5321    1.0000 </r>
       <r>   -6.7010    1.0000 </r>
       <r>   -6.5427    1.0000 </r>
       <r>    0.7042    0.0000 </r>
       <r>    1.0950    0.0000 </r>
       <r>    1.8988    0.0000 </r>
       <r>    2.3024    0.0000 </r>
      </set>
      <set comment="kpoint 34">
       <r>  -21.5176    1.0000 </r>
       <r>  -19.2641    1.0000 </r>
       <r>  -13.0379    1.0000 </r>
       <r>   -9.5759    1.0000 </r>
       <r>   -8.5367    1.0000 </r>
       <r>   -7.9547    1.0000 </r>
       <r>   -7.0302    1.0000 </r>
       <r>   -6.7318    1.0000 </r>
       <r>    1.2166    0.0000 </r>
       <r>    1.2651    0.0000 </r>
       <r>    2.0704    0.0000 </r>
       <r>    2.4770    0.0000 </r>
      </set>
      <set comment="kpoint 35">
       <r>  -21.3739    1.0000 </r>
       <r>  -19.5664    1.0000 </r>
       <r>  -12.5263    1.0000 </r>
       <r>   -9.4074    1.0000 </r>
       <r>   -8.4102    1.0000 </r>
       <r>   -8.4038    1.0000 </r>
       <r>   -7.3543    1.0000 </r>
       <r>   -6.9308    1.0000 </r>
       <r>    1.4613    0.0000 </r>
       <r>    1.7458    0.0000 </r>
       <r>    2.2681    0.0000 </r>
       <r>    2.6784    0.0000 </r>
      </set>
      <set comment="kpoint 36">
       <r>  -21.2113    1.0000 </r>
       <r>  -19.8532    1.0000 </r>
       <r>  -12.0066    1.0000 </r>
       <r>   -9.2175    1.0000 </r>
       <r>   -8.8913    1.0000 </r>
       <r>   -8.2557    1.0000 </r>
       <r>   -7.6687    1.0000 </r>
       <r>   -7.1344    1.0000 </r>
       <r>    1.6837    0.0000 </r>
       <r>    2.2833    0.0000 </r>
       <r>    2.4915    0.0000 </r>
       <r>    2.9066    0.0000 </r>
      </set>
      <set comment="kpoint 37">
       <r>  -21.0302    1.0000 </r>
       <r>  -20.1236    1.0000 </r>
       <r>  -11.4816    1.0000 </r>
       <r>   -9.3915    1.0000 </r>
       <r>   -9.0067    1.0000 </r>
       <r>   -8.0937    1.0000 </r>
       <r>   -7.9702    1.0000 </r>
       <r>   -7.3384    1.0000 </r>
       <r>    1.9321    0.0000 </r>
       <r>    2.7396    0.0000 </r>
       <r>    2.8180    0.0000 </r>
       <r>    3.1617    0.0000 </r>
      </set>
      <set comment="kpoint 38">
       <r>  -20.8305    1.0000 </r>
       <r>  -20.3769    1.0000 </r>
       <r>  -10.9541    1.0000 </r>
       <r>   -9.9051    1.0000 </r>
       <r>   -8.7757    1.0000 </r>
       <r>   -8.2563    1.0000 </r>
       <r>   -7.9190    1.0000 </r>
       <r>   -7.5391    1.0000 </r>
       <r>    2.2065    0.0000 </r>
       <r>    2.8327    0.0000 </r>
       <r>    3.0099    0.0000 </r>
       <r>    3.3016    0.0000 </r>
      </set>
      <set comment="kpoint 39">
       <r>  -20.6127    1.0000 </r>
       <r>  -20.6127    1.0000 </r>
       <r>  -10.4274    1.0000 </r>
       <r>  -10.4274    1.0000 </r>
       <r>   -8.5252    1.0000 </r>
       <r>   -8.5252    1.0000 </r>
       <r>   -7.7335    1.0000 </r>
       <r>   -7.7335    1.0000 </r>
       <r>    2.5068    0.0000 </r>
       <r>    2.5068    0.0000 </r>
       <r>    3.2866    0.0000 </r>
       <r>    3.2866    0.0000 </r>
      </set>
      <set comment="kpoint 40">
       <r>  -21.9200    1.0000 </r>
       <r>  -17.1950    1.0000 </r>
       <r>  -15.6946    1.0000 </r>
       <r>  -10.0500    1.0000 </r>
       <r>   -9.2786    1.0000 </r>
       <r>   -6.2733    1.0000 </r>
       <r>   -6.2248    1.0000 </r>
       <r>   -5.2304    1.0000 </r>
       <r>   -1.2298    0.0000 </r>
       <r>    0.7182    0.0000 </r>
       <r>    1.5171    0.0000 </r>
       <r>    1.9151    0.0000 </r>
      </set>
      <set comment="kpoint 41">
       <r>  -21.9103    1.0000 </r>
       <r>  -17.3048    1.0000 </r>
       <r>  -15.5702    1.0000 </r>
       <r>  -10.0386    1.0000 </r>
       <r>   -9.2692    1.0000 </r>
       <r>   -6.3442    1.0000 </r>
       <r>   -6.2129    1.0000 </r>
       <r>   -5.2886    1.0000 </r>
       <r>   -1.1569    0.0000 </r>
       <r>    0.7312    0.0000 </r>
       <r>    1.5304    0.0000 </r>
       <r>    1.9286    0.0000 </r>
      </set>
      <set comment="kpoint 42">
       <r>  -21.8814    1.0000 </r>
       <r>  -17.5644    1.0000 </r>
       <r>  -15.2672    1.0000 </r>
       <r>  -10.0044    1.0000 </r>
       <r>   -9.2410    1.0000 </r>
       <r>   -6.4916    1.0000 </r>
       <r>   -6.2402    1.0000 </r>
       <r>   -5.4513    1.0000 </r>
       <r>   -0.9502    0.0000 </r>
       <r>    0.7704    0.0000 </r>
       <r>    1.5701    0.0000 </r>
       <r>    1.9688    0.0000 </r>
      </set>
      <set comment="kpoint 43">
       <r>  -21.8332    1.0000 </r>
       <r>  -17.8833    1.0000 </r>
       <r>  -14.8762    1.0000 </r>
       <r>   -9.9474    1.0000 </r>
       <r>   -9.1941    1.0000 </r>
       <r>   -6.6983    1.0000 </r>
       <r>   -6.3173    1.0000 </r>
       <r>   -5.6912    1.0000 </r>
       <r>   -0.6375    0.0000 </r>
       <r>    0.8357    0.0000 </r>
       <r>    1.6363    0.0000 </r>
       <r>    2.0359    0.0000 </r>
      </set>
      <set comment="kpoint 44">
       <r>  -21.7658    1.0000 </r>
       <r>  -18.2191    1.0000 </r>
       <r>  -14.4400    1.0000 </r>
       <r>   -9.8678    1.0000 </r>
       <r>   -9.1288    1.0000 </r>
       <r>   -6.9605    1.0000 </r>
[...]
       <r>   -9.3819    1.0000 </r>
       <r>   -5.4967    1.0000 </r>
       <r>   -5.4967    1.0000 </r>
       <r>   -0.5092    0.0000 </r>
       <r>   -0.5092    0.0000 </r>
       <r>    4.0007    0.0000 </r>
       <r>    4.0007    0.0000 </r>
      </set>
      <set comment="kpoint 209">
       <r>  -18.5786    1.0000 </r>
       <r>  -16.7571    1.0000 </r>
       <r>  -14.2477    1.0000 </r>
       <r>  -12.5736    1.0000 </r>
       <r>  -12.2713    1.0000 </r>
       <r>  -10.7624    1.0000 </r>
       <r>   -6.2466    1.0000 </r>
       <r>   -4.3725    1.0000 </r>
       <r>   -1.2488    0.0000 </r>
       <r>    0.9080    0.0000 </r>
       <r>    5.3273    0.0000 </r>
       <r>    6.0932    0.0000 </r>
      </set>
      <set comment="kpoint 210">
       <r>  -18.5695    1.0000 </r>
       <r>  -16.7501    1.0000 </r>
       <r>  -14.3113    1.0000 </r>
       <r>  -12.6337    1.0000 </r>
       <r>  -12.2000    1.0000 </r>
       <r>  -10.7049    1.0000 </r>
       <r>   -6.2384    1.0000 </r>
       <r>   -4.3767    1.0000 </r>
       <r>   -1.2545    0.0000 </r>
       <r>    0.8859    0.0000 </r>
       <r>    5.3401    0.0000 </r>
       <r>    6.1082    0.0000 </r>
      </set>
      <set comment="kpoint 211">
       <r>  -18.5422    1.0000 </r>
       <r>  -16.7294    1.0000 </r>
       <r>  -14.4784    1.0000 </r>
       <r>  -12.7935    1.0000 </r>
       <r>  -12.0099    1.0000 </r>
       <r>  -10.5533    1.0000 </r>
       <r>   -6.2139    1.0000 </r>
       <r>   -4.3898    1.0000 </r>
       <r>   -1.2702    0.0000 </r>
       <r>    0.8212    0.0000 </r>
       <r>    5.3782    0.0000 </r>
       <r>    6.1527    0.0000 </r>
      </set>
      <set comment="kpoint 212">
       <r>  -18.4967    1.0000 </r>
       <r>  -16.6965    1.0000 </r>
       <r>  -14.7042    1.0000 </r>
       <r>  -13.0149    1.0000 </r>
       <r>  -11.7456    1.0000 </r>
       <r>  -10.3477    1.0000 </r>
       <r>   -6.1733    1.0000 </r>
       <r>   -4.4131    1.0000 </r>
       <r>   -1.2920    0.0000 </r>
       <r>    0.7180    0.0000 </r>
       <r>    5.4406    0.0000 </r>
       <r>    6.2260    0.0000 </r>
      </set>
      <set comment="kpoint 213">
       <r>  -18.4333    1.0000 </r>
       <r>  -16.6544    1.0000 </r>
       <r>  -14.9531    1.0000 </r>
       <r>  -13.2682    1.0000 </r>
       <r>  -11.4419    1.0000 </r>
       <r>  -10.1212    1.0000 </r>
       <r>   -6.1172    1.0000 </r>
       <r>   -4.4482    1.0000 </r>
       <r>   -1.3138    0.0000 </r>
       <r>    0.5823    0.0000 </r>
       <r>    5.5128    0.0000 </r>
       <r>    5.7235    0.0000 </r>
      </set>
      <set comment="kpoint 214">
       <r>  -18.3520    1.0000 </r>
       <r>  -16.6092    1.0000 </r>
       <r>  -15.1998    1.0000 </r>
       <r>  -13.5352    1.0000 </r>
       <r>  -11.1208    1.0000 </r>
       <r>   -9.8960    1.0000 </r>
       <r>   -6.0460    1.0000 </r>
       <r>   -4.4973    1.0000 </r>
       <r>   -1.3288    0.0000 </r>
       <r>    0.4212    0.0000 </r>
       <r>    5.2073    0.0000 </r>
       <r>    5.6637    0.0000 </r>
      </set>
      <set comment="kpoint 215">
       <r>  -18.2532    1.0000 </r>
       <r>  -16.5736    1.0000 </r>
       <r>  -15.4211    1.0000 </r>
       <r>  -13.8054    1.0000 </r>
       <r>  -10.7970    1.0000 </r>
       <r>   -9.6880    1.0000 </r>
       <r>   -5.9608    1.0000 </r>
       <r>   -4.5618    1.0000 </r>
       <r>   -1.3301    0.0000 </r>
       <r>    0.2423    0.0000 </r>
       <r>    4.7874    0.0000 </r>
       <r>    5.8003    0.0000 </r>
      </set>
      <set comment="kpoint 216">
       <r>  -18.1372    1.0000 </r>
       <r>  -16.5716    1.0000 </r>
       <r>  -15.5869    1.0000 </r>
       <r>  -14.0722    1.0000 </r>
       <r>  -10.4816    1.0000 </r>
       <r>   -9.5096    1.0000 </r>
       <r>   -5.8626    1.0000 </r>
       <r>   -4.6427    1.0000 </r>
       <r>   -1.3120    0.0000 </r>
       <r>    0.0524    0.0000 </r>
       <r>    4.4287    0.0000 </r>
       <r>    5.3839    0.0000 </r>
      </set>
      <set comment="kpoint 217">
       <r>  -18.0046    1.0000 </r>
       <r>  -16.6335    1.0000 </r>
       <r>  -15.6631    1.0000 </r>
       <r>  -14.3313    1.0000 </r>
       <r>  -10.1845    1.0000 </r>
       <r>   -9.3712    1.0000 </r>
       <r>   -5.7528    1.0000 </r>
       <r>   -4.7394    1.0000 </r>
       <r>   -1.2705    0.0000 </r>
       <r>   -0.1418    0.0000 </r>
       <r>    4.1434    0.0000 </r>
       <r>    4.9472    0.0000 </r>
      </set>
      <set comment="kpoint 218">
       <r>  -17.8560    1.0000 </r>
       <r>  -16.7653    1.0000 </r>
       <r>  -15.6416    1.0000 </r>
       <r>  -14.5794    1.0000 </r>
       <r>   -9.9145    1.0000 </r>
       <r>   -9.2814    1.0000 </r>
       <r>   -5.6330    1.0000 </r>
       <r>   -4.8502    1.0000 </r>
       <r>   -1.2034    0.0000 </r>
       <r>   -0.3344    0.0000 </r>
       <r>    3.9396    0.0000 </r>
       <r>    4.5680    0.0000 </r>
      </set>
      <set comment="kpoint 219">
       <r>  -17.6925    1.0000 </r>
       <r>  -16.9409    1.0000 </r>
       <r>  -15.5467    1.0000 </r>
       <r>  -14.8138    1.0000 </r>
       <r>   -9.6805    1.0000 </r>
       <r>   -9.2464    1.0000 </r>
       <r>   -5.5055    1.0000 </r>
       <r>   -4.9724    1.0000 </r>
       <r>   -1.1106    0.0000 </r>
       <r>   -0.5202    0.0000 </r>
       <r>    3.8234    0.0000 </r>
       <r>    4.2555    0.0000 </r>
      </set>
      <set comment="kpoint 220">
       <r>  -17.5157    1.0000 </r>
       <r>  -17.1337    1.0000 </r>
       <r>  -15.4046    1.0000 </r>
       <r>  -15.0318    1.0000 </r>
       <r>   -9.4907    1.0000 </r>
       <r>   -9.2698    1.0000 </r>
       <r>   -5.3726    1.0000 </r>
       <r>   -5.1027    1.0000 </r>
       <r>   -0.9932    0.0000 </r>
       <r>   -0.6947    0.0000 </r>
       <r>    3.7982    0.0000 </r>
       <r>    4.0183    0.0000 </r>
      </set>
      <set comment="kpoint 221">
       <r>  -17.3279    1.0000 </r>
       <r>  -17.3279    1.0000 </r>
       <r>  -15.2303    1.0000 </r>
       <r>  -15.2303    1.0000 </r>
       <r>   -9.3521    1.0000 </r>
       <r>   -9.3521    1.0000 </r>
       <r>   -5.2372    1.0000 </r>
       <r>   -5.2372    1.0000 </r>
       <r>   -0.8535    0.0000 </r>
       <r>   -0.8535    0.0000 </r>
       <r>    3.8641    0.0000 </r>
       <r>    3.8641    0.0000 </r>
      </set>
      <set comment="kpoint 222">
       <r>  -18.1489    1.0000 </r>
       <r>  -17.2343    1.0000 </r>
       <r>  -13.8602    1.0000 </r>
       <r>  -13.0224    1.0000 </r>
       <r>  -11.9246    1.0000 </r>
       <r>  -11.1651    1.0000 </r>
       <r>   -5.7879    1.0000 </r>
       <r>   -4.8451    1.0000 </r>
       <r>   -0.7416    0.0000 </r>
       <r>    0.3390    0.0000 </r>
       <r>    5.9348    0.0000 </r>
       <r>    6.6541    0.0000 </r>
      </set>
      <set comment="kpoint 223">
       <r>  -18.1399    1.0000 </r>
       <r>  -17.2262    1.0000 </r>
       <r>  -13.9244    1.0000 </r>
       <r>  -13.0842    1.0000 </r>
       <r>  -11.8556    1.0000 </r>
       <r>  -11.1032    1.0000 </r>
       <r>   -5.7810    1.0000 </r>
       <r>   -4.8435    1.0000 </r>
       <r>   -0.7544    0.0000 </r>
       <r>    0.3190    0.0000 </r>
       <r>    5.9475    0.0000 </r>
       <r>    6.6699    0.0000 </r>
      </set>
      <set comment="kpoint 224">
       <r>  -18.1131    1.0000 </r>
       <r>  -17.2018    1.0000 </r>
       <r>  -14.0934    1.0000 </r>
       <r>  -13.2483    1.0000 </r>
       <r>  -11.6723    1.0000 </r>
       <r>  -10.9395    1.0000 </r>
       <r>   -5.7605    1.0000 </r>
       <r>   -4.8391    1.0000 </r>
       <r>   -0.7914    0.0000 </r>
       <r>    0.2603    0.0000 </r>
       <r>    5.9853    0.0000 </r>
       <r>    6.7170    0.0000 </r>
      </set>
      <set comment="kpoint 225">
       <r>  -18.0685    1.0000 </r>
       <r>  -17.1616    1.0000 </r>
       <r>  -14.3241    1.0000 </r>
       <r>  -13.4745    1.0000 </r>
       <r>  -11.4189    1.0000 </r>
       <r>  -10.7158    1.0000 </r>
       <r>   -5.7267    1.0000 </r>
       <r>   -4.8330    1.0000 </r>
       <r>   -0.8484    0.0000 </r>
       <r>    0.1670    0.0000 </r>
       <r>    6.0455    0.0000 </r>
       <r>    6.5298    0.0000 </r>
      </set>
      <set comment="kpoint 226">
       <r>  -18.0064    1.0000 </r>
       <r>  -17.1066    1.0000 </r>
       <r>  -14.5832    1.0000 </r>
       <r>  -13.7319    1.0000 </r>
       <r>  -11.1301    1.0000 </r>
       <r>  -10.4659    1.0000 </r>
       <r>   -5.6804    1.0000 </r>
       <r>   -4.8267    1.0000 </r>
       <r>   -0.9190    0.0000 </r>
       <r>    0.0453    0.0000 </r>
       <r>    5.9529    0.0000 </r>
       <r>    6.1638    0.0000 </r>
      </set>
      <set comment="kpoint 227">
       <r>  -17.9270    1.0000 </r>
       <r>  -17.0384    1.0000 </r>
       <r>  -14.8503    1.0000 </r>
       <r>  -14.0020    1.0000 </r>
       <r>  -10.8282    1.0000 </r>
       <r>  -10.2120    1.0000 </r>
       <r>   -5.6226    1.0000 </r>
       <r>   -4.8226    1.0000 </r>
       <r>   -0.9956    0.0000 </r>
       <r>   -0.0977    0.0000 </r>
       <r>    5.4602    0.0000 </r>
       <r>    6.0540    0.0000 </r>
      </set>
      <set comment="kpoint 228">
       <r>  -17.8307    1.0000 </r>
       <r>  -16.9600    1.0000 </r>
       <r>  -15.1120    1.0000 </r>
       <r>  -14.2740    1.0000 </r>
       <r>  -10.5281    1.0000 </r>
       <r>   -9.9698    1.0000 </r>
       <r>   -5.5545    1.0000 </r>
       <r>   -4.8234    1.0000 </r>
       <r>   -1.0697    0.0000 </r>
       <r>   -0.2543    0.0000 </r>
       <r>    5.0043    0.0000 </r>
       <r>    5.5478    0.0000 </r>
      </set>
      <set comment="kpoint 229">
       <r>  -17.7184    1.0000 </r>
       <r>  -16.8769    1.0000 </r>
       <r>  -15.3564    1.0000 </r>
       <r>  -14.5410    1.0000 </r>
       <r>  -10.2413    1.0000 </r>
       <r>   -9.7517    1.0000 </r>
       <r>   -5.4780    1.0000 </r>
       <r>   -4.8320    1.0000 </r>
       <r>   -1.1331    0.0000 </r>
       <r>   -0.4169    0.0000 </r>
       <r>    4.6062    0.0000 </r>
       <r>    5.0868    0.0000 </r>
      </set>
      <set comment="kpoint 230">
       <r>  -17.5909    1.0000 </r>
       <r>  -16.8006    1.0000 </r>
       <r>  -15.5686    1.0000 </r>
       <r>  -14.7983    1.0000 </r>
       <r>   -9.9780    1.0000 </r>
       <r>   -9.5680    1.0000 </r>
       <r>   -5.3951    1.0000 </r>
       <r>   -4.8511    1.0000 </r>
       <r>   -1.1783    0.0000 </r>
       <r>   -0.5782    0.0000 </r>
       <r>    4.2759    0.0000 </r>
       <r>    4.6807    0.0000 </r>
      </set>
      <set comment="kpoint 231">
       <r>  -17.4499    1.0000 </r>
       <r>  -16.7529    1.0000 </r>
       <r>  -15.7242    1.0000 </r>
       <r>  -15.0419    1.0000 </r>
       <r>   -9.7475    1.0000 </r>
       <r>   -9.4281    1.0000 </r>
       <r>   -5.3084    1.0000 </r>
       <r>   -4.8827    1.0000 </r>
       <r>   -1.1992    0.0000 </r>
       <r>   -0.7316    0.0000 </r>
       <r>    4.0221    0.0000 </r>
       <r>    4.3388    0.0000 </r>
      </set>
      <set comment="kpoint 232">
       <r>  -17.2980    1.0000 </r>
       <r>  -16.7650    1.0000 </r>
       <r>  -15.7908    1.0000 </r>
       <r>  -15.2674    1.0000 </r>
       <r>   -9.5584    1.0000 </r>
       <r>   -9.3392    1.0000 </r>
       <r>   -5.2209    1.0000 </r>
       <r>   -4.9280    1.0000 </r>
       <r>   -1.1918    0.0000 </r>
       <r>   -0.8710    0.0000 </r>
       <r>    3.8520    0.0000 </r>
       <r>    4.0699    0.0000 </r>
      </set>
      <set comment="kpoint 233">
       <r>  -17.1398    1.0000 </r>
       <r>  -16.8499    1.0000 </r>
       <r>  -15.7544    1.0000 </r>
       <r>  -15.4691    1.0000 </r>
       <r>   -9.4184    1.0000 </r>
       <r>   -9.3068    1.0000 </r>
       <r>   -5.1359    1.0000 </r>
       <r>   -4.9865    1.0000 </r>
       <r>   -1.1541    0.0000 </r>
       <r>   -0.9908    0.0000 </r>
       <r>    3.7709    0.0000 </r>
       <r>    3.8820    0.0000 </r>
      </set>
      <set comment="kpoint 234">
       <r>  -16.9845    1.0000 </r>
       <r>  -16.9845    1.0000 </r>
       <r>  -15.6374    1.0000 </r>
       <r>  -15.6374    1.0000 </r>
       <r>   -9.3334    1.0000 </r>
       <r>   -9.3334    1.0000 </r>
       <r>   -5.0566    1.0000 </r>
       <r>   -5.0566    1.0000 </r>
       <r>   -1.0864    0.0000 </r>
       <r>   -1.0864    0.0000 </r>
       <r>    3.7811    0.0000 </r>
       <r>    3.7811    0.0000 </r>
      </set>
      <set comment="kpoint 235">
       <r>  -17.6998    1.0000 </r>
       <r>  -17.6998    1.0000 </r>
       <r>  -13.4516    1.0000 </r>
       <r>  -13.4516    1.0000 </r>
       <r>  -11.5540    1.0000 </r>
       <r>  -11.5540    1.0000 </r>
       <r>   -5.3190    1.0000 </r>
       <r>   -5.3190    1.0000 </r>
       <r>   -0.2117    0.0000 </r>
       <r>   -0.2117    0.0000 </r>
       <r>    6.5747    0.0000 </r>
       <r>    6.5747    0.0000 </r>
      </set>
      <set comment="kpoint 236">
       <r>  -17.6911    1.0000 </r>
       <r>  -17.6911    1.0000 </r>
       <r>  -13.5149    1.0000 </r>
       <r>  -13.5149    1.0000 </r>
       <r>  -11.4882    1.0000 </r>
       <r>  -11.4882    1.0000 </r>
       <r>   -5.3141    1.0000 </r>
       <r>   -5.3141    1.0000 </r>
       <r>   -0.2288    0.0000 </r>
       <r>   -0.2288    0.0000 </r>
       <r>    6.5872    0.0000 </r>
       <r>    6.5872    0.0000 </r>
      </set>
      <set comment="kpoint 237">
       <r>  -17.6651    1.0000 </r>
       <r>  -17.6651    1.0000 </r>
       <r>  -13.6823    1.0000 </r>
       <r>  -13.6823    1.0000 </r>
       <r>  -11.3139    1.0000 </r>
       <r>  -11.3139    1.0000 </r>
       <r>   -5.2997    1.0000 </r>
       <r>   -5.2997    1.0000 </r>
       <r>   -0.2789    0.0000 </r>
       <r>   -0.2789    0.0000 </r>
       <r>    6.6243    0.0000 </r>
       <r>    6.6244    0.0000 </r>
      </set>
      <set comment="kpoint 238">
       <r>  -17.6220    1.0000 </r>
       <r>  -17.6220    1.0000 </r>
       <r>  -13.9119    1.0000 </r>
       <r>  -13.9119    1.0000 </r>
       <r>  -11.0742    1.0000 </r>
       <r>  -11.0742    1.0000 </r>
       <r>   -5.2765    1.0000 </r>
       <r>   -5.2765    1.0000 </r>
       <r>   -0.3577    0.0000 </r>
       <r>   -0.3577    0.0000 </r>
       <r>    6.6727    0.0000 </r>
       <r>    6.6778    0.0000 </r>
      </set>
      <set comment="kpoint 239">
       <r>  -17.5622    1.0000 </r>
       <r>  -17.5622    1.0000 </r>
       <r>  -14.1719    1.0000 </r>
       <r>  -14.1719    1.0000 </r>
       <r>  -10.8034    1.0000 </r>
       <r>  -10.8034    1.0000 </r>
       <r>   -5.2455    1.0000 </r>
       <r>   -5.2455    1.0000 </r>
       <r>   -0.4592    0.0000 </r>
       <r>   -0.4592    0.0000 </r>
       <r>    6.2673    0.0000 </r>
       <r>    6.2673    0.0000 </r>
      </set>
      <set comment="kpoint 240">
       <r>  -17.4862    1.0000 </r>
       <r>  -17.4862    1.0000 </r>
       <r>  -14.4430    1.0000 </r>
       <r>  -14.4430    1.0000 </r>
       <r>  -10.5240    1.0000 </r>
       <r>  -10.5240    1.0000 </r>
       <r>   -5.2083    1.0000 </r>
       <r>   -5.2083    1.0000 </r>
       <r>   -0.5758    0.0000 </r>
       <r>   -0.5758    0.0000 </r>
       <r>    5.7427    0.0000 </r>
       <r>    5.7427    0.0000 </r>
      </set>
      <set comment="kpoint 241">
       <r>  -17.3951    1.0000 </r>
       <r>  -17.3951    1.0000 </r>
       <r>  -14.7139    1.0000 </r>
       <r>  -14.7139    1.0000 </r>
       <r>  -10.2511    1.0000 </r>
       <r>  -10.2511    1.0000 </r>
       <r>   -5.1670    1.0000 </r>
       <r>   -5.1670    1.0000 </r>
       <r>   -0.6995    0.0000 </r>
       <r>   -0.6995    0.0000 </r>
       <r>    5.2586    0.0000 </r>
       <r>    5.2586    0.0000 </r>
      </set>
      <set comment="kpoint 242">
       <r>  -17.2905    1.0000 </r>
       <r>  -17.2905    1.0000 </r>
       <r>  -14.9768    1.0000 </r>
       <r>  -14.9768    1.0000 </r>
       <r>   -9.9968    1.0000 </r>
       <r>   -9.9968    1.0000 </r>
       <r>   -5.1241    1.0000 </r>
       <r>   -5.1241    1.0000 </r>
       <r>   -0.8220    0.0000 </r>
       <r>   -0.8220    0.0000 </r>
       <r>    4.8265    0.0000 </r>
       <r>    4.8265    0.0000 </r>
      </set>
      <set comment="kpoint 243">
       <r>  -17.1751    1.0000 </r>
       <r>  -17.1751    1.0000 </r>
       <r>  -15.2252    1.0000 </r>
       <r>  -15.2252    1.0000 </r>
       <r>   -9.7714    1.0000 </r>
       <r>   -9.7714    1.0000 </r>
       <r>   -5.0825    1.0000 </r>
       <r>   -5.0825    1.0000 </r>
       <r>   -0.9354    0.0000 </r>
       <r>   -0.9354    0.0000 </r>
       <r>    4.4559    0.0000 </r>
       <r>    4.4559    0.0000 </r>
      </set>
      <set comment="kpoint 244">
       <r>  -17.0541    1.0000 </r>
       <r>  -17.0541    1.0000 </r>
       <r>  -15.4515    1.0000 </r>
       <r>  -15.4515    1.0000 </r>
       <r>   -9.5843    1.0000 </r>
       <r>   -9.5843    1.0000 </r>
       <r>   -5.0456    1.0000 </r>
       <r>   -5.0456    1.0000 </r>
       <r>   -1.0325    0.0000 </r>
       <r>   -1.0325    0.0000 </r>
       <r>    4.1559    0.0000 </r>
       <r>    4.1559    0.0000 </r>
      </set>
      <set comment="kpoint 245">
       <r>  -16.9377    1.0000 </r>
       <r>  -16.9377    1.0000 </r>
       <r>  -15.6441    1.0000 </r>
       <r>  -15.6441    1.0000 </r>
       <r>   -9.4438    1.0000 </r>
       <r>   -9.4438    1.0000 </r>
       <r>   -5.0163    1.0000 </r>
       <r>   -5.0163    1.0000 </r>
       <r>   -1.1069    0.0000 </r>
       <r>   -1.1069    0.0000 </r>
       <r>    3.9347    0.0000 </r>
       <r>    3.9347    0.0000 </r>
      </set>
      <set comment="kpoint 246">
       <r>  -16.8458    1.0000 </r>
       <r>  -16.8458    1.0000 </r>
       <r>  -15.7822    1.0000 </r>
       <r>  -15.7822    1.0000 </r>
       <r>   -9.3566    1.0000 </r>
       <r>   -9.3566    1.0000 </r>
       <r>   -4.9975    1.0000 </r>
       <r>   -4.9975    1.0000 </r>
       <r>   -1.1537    0.0000 </r>
       <r>   -1.1537    0.0000 </r>
       <r>    3.7990    0.0000 </r>
       <r>    3.7990    0.0000 </r>
      </set>
      <set comment="kpoint 247">
       <r>  -16.8089    1.0000 </r>
       <r>  -16.8089    1.0000 </r>
       <r>  -15.8344    1.0000 </r>
       <r>  -15.8344    1.0000 </r>
       <r>   -9.3270    1.0000 </r>
       <r>   -9.3270    1.0000 </r>
       <r>   -4.9910    1.0000 </r>
       <r>   -4.9910    1.0000 </r>
       <r>   -1.1697    0.0000 </r>
       <r>   -1.1697    0.0000 </r>
       <r>    3.7532    0.0000 </r>
       <r>    3.7532    0.0000 </r>
      </set>
     </set>
    </set>
   </array>
  </eigenvalues>
  <separator name="orbital magnetization" >
   <v name="MAGDIPOLOUT">      0.00000000      0.00000000      0.00000000</v>
  </separator>
 </calculation>
 <structure name="finalpos" >
  <crystal>
   <varray name="basis" >
    <v>       4.40232011       0.00000000       0.00000000 </v>
    <v>       0.00000000       2.45536044       0.00000000 </v>
    <v>       0.00000000       0.00000000      19.50526308 </v>
   </varray>
   <i name="volume">    210.83790140 </i>
   <varray name="rec_basis" >
    <v>       0.22715295       0.00000000       0.00000000 </v>
    <v>       0.00000000       0.40727218       0.00000000 </v>
    <v>       0.00000000       0.00000000       0.05126821 </v>
   </varray>
  </crystal>
  <varray name="positions" >
   <v>       0.99938849      -0.00000000      -0.00000000 </v>
   <v>       0.16727817       0.50000000       0.00000000 </v>
   <v>       0.49938849       0.50000000      -0.00000000 </v>
   <v>       0.66727817      -0.00000000       0.00000000 </v>
  </varray>
 </structure>
</modeling>
