gr                                      
           1
     4.402320    0.000000    0.000000
     0.000000    2.455360    0.000000
     0.000000    0.000000   19.505263
   C 
   4
Direct configuration=     1
   0.99938979  0.00000000  0.00000000
   0.16727688  0.50000000  0.00000000
   0.49938979  0.50000000  0.00000000
   0.66727688  0.00000000  0.00000000
Direct configuration=     2
   0.99938386 -0.00000000 -0.00000000
   0.16728280  0.50000000  0.00000000
   0.49938386  0.50000000 -0.00000000
   0.66728280 -0.00000000  0.00000000
Direct configuration=     3
   0.99938849 -0.00000000 -0.00000000
   0.16727817  0.50000000  0.00000000
   0.49938849  0.50000000 -0.00000000
   0.66727817 -0.00000000  0.00000000
