    4    4  400    1
  0.5270948E+02  0.4269383E-09  0.2479636E-09  0.1991570E-08  0.5000000E-15
  1.000000000000000E-004
  CAR 
 gr                                      
     16    247     12
 
  0.0000000E+00  0.0000000E+00  0.0000000E+00  0.1157407E-02
    1      -22.218800
    2      -16.955854
    3      -15.950449
    4      -10.332024
    5       -9.226892
    6       -5.831677
    7       -5.774123
    8       -5.068192
    9       -1.086975
   10        0.528012
   11        1.328567
   12        1.713645
 
  0.4166667E-01  0.0000000E+00  0.0000000E+00  0.2314815E-02
    1      -22.208524
    2      -17.126623
    3      -15.764463
    4      -10.319764
    5       -9.216658
    6       -5.854489
    7       -5.816359
    8       -5.135414
    9       -1.003995
   10        0.541948
   11        1.342677
   12        1.727927
 
  0.8333333E-01  0.0000000E+00  0.0000000E+00  0.2314815E-02
    1      -22.177702
    2      -17.469690
    3      -15.375830
    4      -10.283004
    5       -9.186005
    6       -5.941371
    7       -5.921650
    8       -5.321694
    9       -0.770615
   10        0.583755
   11        1.385002
   12        1.770772
 
  0.1250000E+00  0.0000000E+00  0.0000000E+00  0.2314815E-02
    1      -22.126354
    2      -17.849651
    3      -14.920219
    4      -10.221801
    5       -9.135088
    6       -6.144347
    7       -6.029557
    8       -5.592982
    9       -0.421405
   10        0.653438
   11        1.455530
   12        1.842181
 
  0.1666667E+00  0.0000000E+00  0.0000000E+00  0.2314815E-02
    1      -22.054512
    2      -18.231047
    3      -14.433537
    4      -10.136252
    5       -9.064166
    6       -6.418091
    7       -6.172854
    8       -5.915800
    9        0.009282
   10        0.750998
   11        1.554240
   12        1.942155
 
  0.2083333E+00  0.0000000E+00  0.0000000E+00  0.2314815E-02
    1      -21.962227
    2      -18.603159
    3      -13.927154
    4      -10.026497
    5       -8.973617
    6       -6.753969
    7       -6.345160
    8       -6.265432
    9        0.495476
   10        0.876429
   11        1.681099
   12        2.070695
 
  0.2500000E+00  0.0000000E+00  0.0000000E+00  0.2314815E-02
    1      -21.849561
    2      -18.961690
    3      -13.406223
    4       -9.892727
    5       -8.863946
    6       -7.142803
    7       -6.625510
    8       -6.539764
    9        1.019143
   10        1.029717
   11        1.836058
   12        2.227799
 
  0.2916667E+00  0.0000000E+00  0.0000000E+00  0.2314815E-02
    1      -21.716595
    2      -19.304512
    3      -12.873965
    4       -9.735185
    5       -8.735802
    6       -7.575570
    7       -6.985459
    8       -6.750154
    9        1.210837
   10        1.567563
   11        2.019042
   12        2.413464
 
  0.3333333E+00  0.0000000E+00  0.0000000E+00  0.2314815E-02
    1      -21.563425
    2      -19.630390
    3      -12.332975
    4       -9.554180
    5       -8.590001
    6       -8.043849
    7       -7.338360
    8       -6.970350
    9        1.419748
   10        2.130978
   11        2.229932
   12        2.627684
 
  0.3750000E+00  0.0000000E+00  0.0000000E+00  0.2314815E-02
    1      -21.390167
    2      -19.938519
    3      -11.785718
    4       -9.350101
    5       -8.540047
    6       -8.427553
    7       -7.679558
    8       -7.195063
    9        1.656397
   10        2.468524
   11        2.700398
   12        2.870449
 
  0.4166667E+00  0.0000000E+00  0.0000000E+00  0.2314815E-02
    1      -21.196955
    2      -20.228328
    3      -11.234778
    4       -9.123433
    5       -9.057480
    6       -8.249698
    7       -8.005826
    8       -7.419736
    9        1.920709
   10        2.734399
   11        3.141761
   12        3.251515
 
  0.4583333E+00  0.0000000E+00  0.0000000E+00  0.2314815E-02
    1      -20.983951
    2      -20.499385
    3      -10.683001
    4       -9.590339
    5       -8.874787
    6       -8.314850
    7       -8.057948
    8       -7.640507
    9        2.212580
   10        2.878319
   11        3.026464
   12        3.441563
 
  0.5000000E+00  0.0000000E+00  0.0000000E+00  0.1157407E-02
    1      -20.751352
    2      -20.751352
    3      -10.133616
    4      -10.133616
    5       -8.604930
    6       -8.604930
    7       -7.854141
    8       -7.854141
    9        2.531863
   10        2.531863
   11        3.340243
   12        3.340243
 
  0.0000000E+00  0.2777778E-01  0.0000000E+00  0.2314815E-02
    1      -22.205270
    2      -16.944232
    3      -15.939098
    4      -10.315882
    5       -9.287776
    6       -5.887780
    7       -5.804757
    8       -5.051744
    9       -1.091380
   10        0.546354
   11        1.347156
   12        1.732459
 
  0.4166667E-01  0.2777778E-01  0.0000000E+00  0.4629630E-02
    1      -22.194995
    2      -17.114841
    3      -15.753326
    4      -10.303626
    5       -9.277522
    6       -5.918606
    7       -5.838291
    8       -5.119118
    9       -1.008370
   10        0.560290
   11        1.361264
   12        1.746741
 
  0.8333333E-01  0.2777778E-01  0.0000000E+00  0.4629630E-02
    1      -22.164177
    2      -17.457658
    3      -15.365103
    4      -10.266879
    5       -9.246810
    6       -6.020289
    7       -5.926844
    8       -5.305743
    9       -0.775009
   10        0.602100
   11        1.403586
   12        1.789587
 
  0.1250000E+00  0.2777778E-01  0.0000000E+00  0.4629630E-02
    1      -22.112836
    2      -17.837396
    3      -14.909990
    4      -10.205697
    5       -9.195789
    6       -6.205783
    7       -6.049372
    8       -5.577383
    9       -0.426056
   10        0.671788
   11        1.474110
   12        1.860997
 
  0.1666667E+00  0.2777778E-01  0.0000000E+00  0.4629630E-02
    1      -22.041005
    2      -18.218601
    3      -14.423899
    4      -10.120178
    5       -9.124713
    6       -6.467731
    7       -6.201078
    8       -5.900459
    9        0.004032
   10        0.769353
   11        1.572814
   12        1.960973
 
  0.2083333E+00  0.2777778E-01  0.0000000E+00  0.4629630E-02
    1      -21.948734
    2      -18.590549
    3      -13.918218
    4      -10.010462
    5       -9.033949
    6       -6.794079
    7       -6.379374
    8       -6.250238
    9        0.489271
   10        0.894794
   11        1.699666
   12        2.089514
 
  0.2500000E+00  0.2777778E-01  0.0000000E+00  0.4629630E-02
    1      -21.836086
    2      -18.948940
    3      -13.398123
    4       -9.876738
    5       -8.923989
    6       -7.174646
    7       -6.610373
    8       -6.578829
    9        1.011652
   10        1.048092
   11        1.854616
   12        2.246620
 
  0.2916667E+00  0.2777778E-01  0.0000000E+00  0.4629630E-02
    1      -21.703142
    2      -19.291640
    3      -12.866865
    4       -9.719252
    5       -8.795465
    6       -7.600202
    7       -6.970315
    8       -6.793306
    9        1.229224
   10        1.558501
   11        2.037591
   12        2.432288
 
  0.3333333E+00  0.2777778E-01  0.0000000E+00  0.4629630E-02
    1      -21.549998
    2      -19.617414
    3      -12.327074
    4       -9.538311
    5       -8.649170
    6       -8.062266
    7       -7.323168
    8       -7.016953
    9        1.438149
   10        2.120135
   11        2.248474
   12        2.646513
 
  0.3750000E+00  0.2777778E-01  0.0000000E+00  0.4629630E-02
    1      -21.376770
    2      -19.925453
    3      -11.781261
    4       -9.334304
    5       -8.553183
    6       -8.486088
    7       -7.664293
    8       -7.244556
    9        1.674814
   10        2.487064
   11        2.687766
   12        2.889284
 
  0.4166667E+00  0.2777778E-01  0.0000000E+00  0.4629630E-02
    1      -21.183595
    2      -20.215185
    3      -11.232062
    4       -9.107716
    5       -9.066179
    6       -8.307426
    7       -7.990472
    8       -7.471621
    9        1.939144
   10        2.752949
   11        3.160702
   12        3.255917
 
  0.4583333E+00  0.2777778E-01  0.0000000E+00  0.4629630E-02
    1      -20.970634
    2      -20.486175
    3      -10.682388
    4       -9.595339
    5       -8.859155
    6       -8.299403
    7       -8.114657
    8       -7.694351
    9        2.231040
   10        2.896874
   11        3.045046
   12        3.460435
 
  0.5000000E+00  0.2777778E-01  0.0000000E+00  0.2314815E-02
    1      -20.738084
    2      -20.738084
    3      -10.135545
    4      -10.135545
    5       -8.589390
    6       -8.589390
    7       -7.909574
    8       -7.909574
    9        2.550358
   10        2.550358
   11        3.358813
   12        3.358813
 
  0.0000000E+00  0.5555556E-01  0.0000000E+00  0.2314815E-02
    1      -22.164689
    2      -16.909371
    3      -15.905208
    4      -10.267488
    5       -9.465529
    6       -6.051648
    7       -5.895864
    8       -5.002419
    9       -1.105422
   10        0.601385
   11        1.402913
   12        1.788904
 
  0.4166667E-01  0.5555556E-01  0.0000000E+00  0.4629630E-02
    1      -22.154418
    2      -17.079509
    3      -15.720070
    4      -10.255246
    5       -9.455212
    6       -6.089487
    7       -5.920379
    8       -5.070262
    9       -1.022313
   10        0.615323
   11        1.417019
   12        1.803186
 
  0.8333333E-01  0.5555556E-01  0.0000000E+00  0.4629630E-02
    1      -22.123613
    2      -17.421587
    3      -15.333085
    4      -10.218537
    5       -9.424305
    6       -6.200387
    7       -5.994039
    8       -5.257953
    9       -0.788999
   10        0.657138
   11        1.459332
   12        1.846032
 
  0.1250000E+00  0.5555556E-01  0.0000000E+00  0.4629630E-02
    1      -22.072294
    2      -17.800657
    3      -14.879489
    4      -10.157420
    5       -9.372946
    6       -6.379418
    7       -6.114595
    8       -5.530674
    9       -0.440824
   10        0.726834
   11        1.529842
   12        1.917444
 
  0.1666667E+00  0.5555556E-01  0.0000000E+00  0.4629630E-02
    1      -22.000496
    2      -18.181287
    3      -14.395207
    4      -10.071992
    5       -9.301365
    6       -6.622148
    7       -6.275491
    8       -5.854534
    9       -0.012561
   10        0.824415
   11        1.628526
   12        2.017423
 
  0.2083333E+00  0.5555556E-01  0.0000000E+00  0.4629630E-02
    1      -21.908267
    2      -18.552741
    3      -13.891684
    4       -9.962393
    5       -9.209897
    6       -6.924101
    7       -6.467653
    8       -6.204758
    9        0.469761
   10        0.949876
   11        1.755353
   12        2.145969
 
  0.2500000E+00  0.5555556E-01  0.0000000E+00  0.4629630E-02
    1      -21.795671
    2      -18.910708
    3      -13.374171
    4       -9.828812
    5       -9.098989
    6       -7.279676
    7       -6.681896
    8       -6.565062
    9        0.988217
   10        1.103202
   11        1.910275
   12        2.303082
 
  0.2916667E+00  0.5555556E-01  0.0000000E+00  0.4629630E-02
    1      -21.662794
    2      -19.253043
    3      -12.846015
    4       -9.671495
    5       -8.969215
    6       -7.682042
    7       -6.924979
    8       -6.910190
    9        1.284365
   10        1.530263
   11        2.093222
   12        2.488759
 
  0.3333333E+00  0.5555556E-01  0.0000000E+00  0.4629630E-02
    1      -21.509728
    2      -19.578503
    3      -12.309964
    4       -9.490748
    5       -8.821295
    6       -8.123724
    7       -7.277679
    8       -7.145908
    9        1.493325
   10        2.086432
   11        2.304082
   12        2.702994
 
  0.3750000E+00  0.5555556E-01  0.0000000E+00  0.4629630E-02
    1      -21.336593
    2      -19.886271
    3      -11.768673
    4       -9.286961
    5       -8.656118
    6       -8.597283
    7       -7.618577
    8       -7.383662
    9        1.730030
   10        2.542665
   11        2.648458
   12        2.945779
 
  0.4166667E+00  0.5555556E-01  0.0000000E+00  0.4629630E-02
    1      -21.143526
    2      -20.175769
    3      -11.224959
    4       -9.095763
    5       -9.060615
    6       -8.474776
    7       -7.944487
    8       -7.619070
    9        1.994406
   10        2.808579
   11        3.205285
   12        3.217102
 
  0.4583333E+00  0.5555556E-01  0.0000000E+00  0.4629630E-02
    1      -20.930693
    2      -20.446558
    3      -10.681954
    4       -9.612911
    5       -8.812317
    6       -8.278597
    7       -8.253132
    8       -7.848559
    9        2.286359
   10        2.952412
   11        3.100778
   12        3.517140
 
  0.5000000E+00  0.5555556E-01  0.0000000E+00  0.2314815E-02
    1      -20.698293
    2      -20.698293
    3      -10.143232
    4      -10.143232
    5       -8.542831
    6       -8.542831
    7       -8.069201
    8       -8.069201
    9        2.605759
   10        2.605759
   11        3.414502
   12        3.414502
 
  0.0000000E+00  0.8333333E-01  0.0000000E+00  0.2314815E-02
    1      -22.097093
    2      -16.851282
    3      -15.849297
    4      -10.186944
    5       -9.746808
    6       -6.311293
    7       -6.045116
    8       -4.920278
    9       -1.131568
   10        0.693120
   11        1.495818
   12        1.882980
 
  0.4166667E-01  0.8333333E-01  0.0000000E+00  0.4629630E-02
    1      -22.086829
    2      -17.020677
    3      -15.665191
    4      -10.174724
    5       -9.736366
    6       -6.353206
    7       -6.062371
    8       -4.988952
    9       -1.048265
   10        0.707058
   11        1.509918
   12        1.897263
 
  0.8333333E-01  0.8333333E-01  0.0000000E+00  0.4629630E-02
    1      -22.056046
    2      -17.361549
    3      -15.280290
    4      -10.138082
    5       -9.705078
    6       -6.470729
    7       -6.120365
    8       -5.178517
    9       -0.814991
   10        0.748875
   11        1.552216
   12        1.940110
 
  0.1250000E+00  0.8333333E-01  0.0000000E+00  0.4629630E-02
    1      -22.004765
    2      -17.739511
    3      -14.829307
    4      -10.077076
    5       -9.653052
    6       -6.649865
    7       -6.227278
    8       -5.453119
    9       -0.468130
   10        0.818577
   11        1.622699
   12        2.011523
 
  0.1666667E+00  0.8333333E-01  0.0000000E+00  0.4629630E-02
    1      -21.933020
    2      -18.119178
    3      -14.348179
    4       -9.991804
    5       -9.580478
    6       -6.880808
    7       -6.383707
    8       -5.778329
    9       -0.043002
   10        0.916171
   11        1.721347
   12        2.111506
 
  0.2083333E+00  0.8333333E-01  0.0000000E+00  0.4629630E-02
    1      -21.840862
    2      -18.489802
    3      -13.848454
    4       -9.882405
    5       -9.487623
    6       -7.158293
    7       -6.583101
    8       -6.129305
    9        0.434303
   10        1.041653
   11        1.848128
   12        2.240057
 
  0.2500000E+00  0.8333333E-01  0.0000000E+00  0.4629630E-02
    1      -21.728357
    2      -18.847056
    3      -13.335526
    4       -9.749070
    5       -9.374843
    6       -7.479917
    7       -6.814441
    8       -6.489883
    9        0.946003
   10        1.195007
   11        2.002998
   12        2.397178
 
  0.2916667E+00  0.8333333E-01  0.0000000E+00  0.4629630E-02
    1      -21.595588
    2      -19.188778
    3      -12.812928
    4       -9.592042
    5       -9.242588
    6       -7.844158
    7       -7.065258
    8       -6.849740
    9        1.376207
   10        1.479776
   11        2.185889
   12        2.582865
 
  0.3333333E+00  0.8333333E-01  0.0000000E+00  0.4629630E-02
    1      -21.442654
    2      -19.513709
    3      -12.283644
    4       -9.411631
    5       -9.091418
    6       -8.248495
    7       -7.324410
    8       -7.202165
    9        1.585209
   10        2.026472
   11        2.396701
   12        2.797114
 
  0.3750000E+00  0.8333333E-01  0.0000000E+00  0.4629630E-02
    1      -21.269674
    2      -19.821022
    3      -11.750631
    4       -9.208221
    5       -8.922011
    6       -8.688563
    7       -7.583545
    8       -7.542659
    9        1.821958
   10        2.578483
   11        2.635261
   12        3.039917
 
  0.4166667E+00  0.8333333E-01  0.0000000E+00  0.4629630E-02
    1      -21.076790
    2      -20.110128
    3      -11.217086
    4       -9.158570
    5       -8.982293
    6       -8.735188
    7       -7.868099
    8       -7.837038
    9        2.086384
   10        2.901221
   11        3.127562
   12        3.311266
 
  0.4583333E+00  0.8333333E-01  0.0000000E+00  0.4629630E-02
    1      -20.864172
    2      -20.380578
    3      -10.686621
    4       -9.652209
    5       -8.734449
    6       -8.531935
    7       -8.176245
    8       -8.081187
    9        2.378396
   10        3.044658
   11        3.193611
   12        3.611401
 
  0.5000000E+00  0.8333333E-01  0.0000000E+00  0.2314815E-02
    1      -20.632022
    2      -20.632022
    3      -10.163392
    4      -10.163392
    5       -8.465445
    6       -8.465445
    7       -8.313445
    8       -8.313445
    9        2.697875
   10        2.697875
   11        3.507224
   12        3.507224
 
  0.0000000E+00  0.1111111E+00  0.0000000E+00  0.2314815E-02
    1      -22.002544
    2      -16.769985
    3      -15.772346
    4      -10.112981
    5      -10.074421
    6       -6.650296
    7       -6.248809
    8       -4.805422
    9       -1.173885
   10        0.821576
   11        1.625833
   12        2.014694
 
  0.4166667E-01  0.1111111E+00  0.0000000E+00  0.4629630E-02
    1      -21.992291
    2      -16.938432
    3      -15.589633
    4      -10.102321
    5      -10.062233
    6       -6.695215
    7       -6.258918
    8       -4.875372
    9       -1.090237
   10        0.835511
   11        1.639925
   12        2.028976
 
  0.8333333E-01  0.1111111E+00  0.0000000E+00  0.4629630E-02
    1      -21.961540
    2      -17.277678
    3      -15.207712
    4      -10.070364
    5      -10.025689
    6       -6.818639
    7       -6.299183
    8       -5.067788
    9       -0.856906
   10        0.877321
   11        1.682196
   12        2.071822
 
  0.1250000E+00  0.1111111E+00  0.0000000E+00  0.4629630E-02
    1      -21.910311
    2      -17.654096
    3      -14.760599
    4      -10.017172
    5       -9.964845
    6       -7.000937
    7       -6.385033
    8       -5.345205
    9       -0.511895
   10        0.947015
   11        1.752636
   12        2.143235
 
  0.1666667E+00  0.1111111E+00  0.0000000E+00  0.4629630E-02
    1      -21.838642
    2      -18.032404
    3      -14.284235
    4       -9.942850
    5       -9.879799
    6       -7.227752
    7       -6.523807
    8       -5.672394
    9       -0.091322
   10        1.044605
   11        1.851224
   12        2.243218
 
  0.2083333E+00  0.1111111E+00  0.0000000E+00  0.4629630E-02
    1      -21.746584
    2      -18.401851
    3      -13.790335
    4       -9.847537
    5       -9.770694
    6       -7.490563
    7       -6.714444
    8       -6.024444
    9        0.378660
   10        1.170091
   11        1.977928
   12        2.371773
 
  0.2500000E+00  0.1111111E+00  0.0000000E+00  0.4629630E-02
    1      -21.634205
    2      -18.758091
    3      -13.284548
    4       -9.731410
    5       -9.637718
    6       -7.785095
    7       -6.949652
    8       -6.385383
    9        0.880508
   10        1.323460
   11        2.132707
   12        2.528901
 
  0.2916667E+00  0.1111111E+00  0.0000000E+00  0.4629630E-02
    1      -21.501589
    2      -19.098942
    3      -12.770745
    4       -9.594671
    5       -9.481116
    6       -8.110323
    7       -7.217746
    8       -6.745114
    9        1.402221
   10        1.504683
   11        2.315499
   12        2.714598
 
  0.3333333E+00  0.1111111E+00  0.0000000E+00  0.4629630E-02
    1      -21.348839
    2      -19.423123
    3      -12.252362
    4       -9.437539
    5       -9.301195
    6       -8.467342
    7       -7.504662
    8       -7.097104
    9        1.713716
   10        1.935041
   11        2.526215
   12        2.928860
 
  0.3750000E+00  0.1111111E+00  0.0000000E+00  0.4629630E-02
    1      -21.176078
    2      -19.729790
    3      -11.732943
    4       -9.260236
    5       -9.098340
    6       -8.857562
    7       -7.796520
    8       -7.436980
    9        1.950497
   10        2.472007
   11        2.764713
   12        3.171680
 
  0.4166667E+00  0.1111111E+00  0.0000000E+00  0.4629630E-02
    1      -20.983452
    2      -20.018340
    3      -11.216448
    4       -9.280659
    5       -9.062981
    6       -8.873028
    7       -8.082176
    8       -7.761708
    9        2.214954
   10        3.006800
   11        3.030715
   12        3.443049
 
  0.4583333E+00  0.1111111E+00  0.0000000E+00  0.4629630E-02
    1      -20.771139
    2      -20.288312
    3      -10.707445
    4       -9.733596
    5       -8.845999
    6       -8.625853
    7       -8.354449
    8       -8.069107
    9        2.506997
   10        3.173353
   11        3.323424
   12        3.529053
 
  0.5000000E+00  0.1111111E+00  0.0000000E+00  0.2314815E-02
    1      -20.539342
    2      -20.539342
    3      -10.211201
    4      -10.211201
    5       -8.609602
    6       -8.609602
    7       -8.357564
    8       -8.357564
    9        2.826513
   10        2.826513
   11        3.636597
   12        3.636597
 
  0.0000000E+00  0.1388889E+00  0.0000000E+00  0.2314815E-02
    1      -21.881131
    2      -16.665509
    3      -15.676023
    4      -10.543418
    5       -9.930165
    6       -7.051123
    7       -6.502112
    8       -4.657997
    9       -1.237902
   10        0.986763
   11        1.792902
   12        2.184048
 
  0.4166667E-01  0.1388889E+00  0.0000000E+00  0.4629630E-02
    1      -21.870892
    2      -16.832911
    3      -15.495011
    4      -10.532390
    5       -9.918021
    6       -7.098743
    7       -6.504685
    8       -4.729818
    9       -1.153641
   10        1.000691
   11        1.806980
   12        2.198329
 
  0.8333333E-01  0.1388889E+00  0.0000000E+00  0.4629630E-02
    1      -21.840180
    2      -17.170183
    3      -15.117074
    4      -10.499296
    5       -9.881608
    6       -7.228051
    7       -6.525164
    8       -4.926342
    9       -0.919971
   10        1.042479
   11        1.849211
   12        2.241172
 
  0.1250000E+00  0.1388889E+00  0.0000000E+00  0.4629630E-02
    1      -21.789021
    2      -17.544627
    3      -14.675408
    4      -10.444109
    5       -9.820984
    6       -7.415252
    7       -6.584800
    8       -5.207715
    9       -0.577283
   10        1.112144
   11        1.919581
   12        2.312581
 
  0.1666667E+00  0.1388889E+00  0.0000000E+00  0.4629630E-02
    1      -21.717450
    2      -17.921166
    3      -14.205949
    4      -10.366768
    5       -9.736248
    6       -7.642665
    7       -6.696614
    8       -5.537607
    9       -0.162784
   10        1.209701
   11        2.018071
   12        2.412560
 
  0.2083333E+00  0.1388889E+00  0.0000000E+00  0.4629630E-02
    1      -21.625522
    2      -18.289070
    3      -13.720695
    4      -10.267163
    5       -9.627543
    6       -7.899308
    7       -6.864549
    8       -5.891061
    9        0.297366
   10        1.335160
   11        2.144648
   12        2.541113
 
  0.2500000E+00  0.1388889E+00  0.0000000E+00  0.4629630E-02
    1      -21.513306
    2      -18.643979
    3      -13.225753
    4      -10.145096
    5       -9.495057
    6       -8.178669
    7       -7.085822
    8       -6.252415
    9        0.786010
   10        1.488513
   11        2.299270
   12        2.698242
 
  0.2916667E+00  0.1388889E+00  0.0000000E+00  0.4629630E-02
    1      -21.380889
    2      -18.983684
    3      -12.725648
    4      -10.000242
    5       -9.339036
    6       -8.477542
    7       -7.352616
    8       -6.611896
    9        1.291609
   10        1.669730
   11        2.481880
   12        2.883944
 
  0.3333333E+00  0.1388889E+00  0.0000000E+00  0.4629630E-02
    1      -21.228378
    2      -19.306879
    3      -12.224698
    4       -9.832083
    5       -9.159788
    6       -8.795601
    7       -7.653319
    8       -6.963224
    9        1.805901
   10        1.878764
   11        2.692399
   12        3.098216
 
  0.3750000E+00  0.1388889E+00  0.0000000E+00  0.4629630E-02
    1      -21.055901
    2      -19.612699
    3      -11.727620
    4       -9.639852
    5       -9.135074
    6       -8.957695
    7       -7.973689
    8       -7.302203
    9        2.115549
   10        2.322521
   11        2.930719
   12        3.341050
 
  0.4166667E+00  0.1388889E+00  0.0000000E+00  0.4629630E-02
    1      -20.863612
    2      -19.900521
    3      -11.239829
    4       -9.499827
    5       -9.422528
    6       -8.733230
    7       -8.298433
    8       -7.625917
    9        2.380005
   10        2.836214
   11        3.196667
   12        3.612438
 
  0.4583333E+00  0.1388889E+00  0.0000000E+00  0.4629630E-02
    1      -20.651693
    2      -20.169867
    3      -10.767456
    4       -9.893435
    5       -9.179031
    6       -8.613559
    7       -8.486982
    8       -7.932265
    9        2.672035
   10        3.338326
   11        3.342181
   12        3.489815
 
  0.5000000E+00  0.1388889E+00  0.0000000E+00  0.2314815E-02
    1      -20.420359
    2      -20.420359
    3      -10.316867
    4      -10.316867
    5       -8.908873
    6       -8.908873
    7       -8.219684
    8       -8.219684
    9        2.991523
   10        2.991523
   11        3.791152
   12        3.791372
 
  0.0000000E+00  0.1666667E+00  0.0000000E+00  0.2314815E-02
    1      -21.732973
    2      -16.537895
    3      -15.563137
    4      -11.017545
    5       -9.754504
    6       -7.497424
    7       -6.799370
    8       -4.478195
    9       -1.330297
   10        1.188677
   11        1.996944
   12        2.391046
 
  0.4166667E-01  0.1666667E+00  0.0000000E+00  0.4629630E-02
    1      -21.722750
    2      -16.704332
    3      -15.384075
    4      -11.005883
    5       -9.742418
    6       -7.547720
    7       -6.794011
    8       -4.552734
    9       -1.244927
   10        1.202591
   11        2.011001
   12        2.405324
 
  0.8333333E-01  0.1666667E+00  0.0000000E+00  0.4629630E-02
    1      -21.692090
    2      -17.039391
    3      -15.011377
    4      -10.970830
    5       -9.706178
    6       -7.683133
    7       -6.793158
    8       -4.755091
    9       -1.010250
   10        1.244343
   11        2.053165
   12        2.448161
 
  0.1250000E+00  0.1666667E+00  0.0000000E+00  0.4629630E-02
    1      -21.641015
    2      -17.411435
    3      -14.577393
    4      -10.912168
    5       -9.645844
    6       -7.876353
    7       -6.823110
    8       -5.041881
    9       -0.670157
   10        1.313951
   11        2.123424
   12        2.519561
 
  0.1666667E+00  0.1666667E+00  0.0000000E+00  0.4629630E-02
    1      -21.569565
    2      -17.785766
    3      -14.118070
    4      -10.829494
    5       -9.561515
    6       -8.107093
    7       -6.901784
    8       -5.375315
    9       -0.263264
   10        1.411439
   11        2.221750
   12        2.619529
 
  0.2083333E+00  0.1666667E+00  0.0000000E+00  0.4629630E-02
    1      -21.477796
    2      -18.151729
    3      -13.645944
    4      -10.722153
    5       -9.453335
    6       -8.362725
    7       -7.037414
    8       -5.730494
    9        0.184423
   10        1.536827
   11        2.348108
   12        2.748071
 
  0.2500000E+00  0.1666667E+00  0.0000000E+00  0.4629630E-02
    1      -21.365780
    2      -18.504957
    3      -13.168037
    4      -10.589138
    5       -9.321496
    6       -8.635378
    7       -7.231118
    8       -6.092243
    9        0.656381
   10        1.690116
   11        2.502445
   12        2.905193
 
  0.2916667E+00  0.1666667E+00  0.0000000E+00  0.4629630E-02
    1      -21.233609
    2      -18.843217
    3      -12.690186
    4      -10.428961
    5       -9.166243
    6       -8.920262
    7       -7.478736
    8       -6.451251
    9        1.141767
   10        1.871282
   11        2.684693
   12        3.090893
 
  0.3333333E+00  0.1666667E+00  0.0000000E+00  0.4629630E-02
    1      -21.081394
    2      -19.165171
    3      -12.218454
    4      -10.239551
    5       -9.215002
    6       -8.987886
    7       -7.772109
    8       -6.801585
    9        1.632984
   10        2.080275
   11        2.894759
   12        3.305169
 
  0.3750000E+00  0.1666667E+00  0.0000000E+00  0.4629630E-02
    1      -20.909270
    2      -19.469926
    3      -11.759606
    4      -10.018326
    5       -9.519503
    6       -8.786805
    7       -8.100058
    8       -7.139284
    9        2.124332
   10        2.317023
   11        3.132515
   12        3.548012
 
  0.4166667E+00  0.1666667E+00  0.0000000E+00  0.4629630E-02
    1      -20.717400
    2      -19.756833
    3      -11.320797
    4       -9.836041
    5       -9.762804
    6       -8.563470
    7       -8.449105
    8       -7.461586
    9        2.581435
   10        2.611260
   11        3.397756
   12        3.819411
 
  0.4583333E+00  0.1666667E+00  0.0000000E+00  0.4629630E-02
    1      -20.505974
    2      -20.025396
    3      -10.908210
    4      -10.169176
    5       -9.472173
    6       -8.804141
    7       -8.318462
    8       -7.766492
    9        2.873402
   10        3.089914
   11        3.539464
   12        3.689695
 
  0.5000000E+00  0.1666667E+00  0.0000000E+00  0.2314815E-02
    1      -20.275217
    2      -20.275217
    3      -10.524860
    4      -10.524860
    5       -9.149671
    6       -9.149671
    7       -8.052501
    8       -8.052501
    9        3.192796
   10        3.192796
   11        3.556565
   12        3.556569
 