       N       E                     dE             d eps       ncg     rms          rms(c)
DAV:   1     0.188988710057E+03    0.18899E+03   -0.10618E+04  5928   0.275E+03
DAV:   2    -0.909993309595E+01   -0.19809E+03   -0.17637E+03 10396   0.262E+02
DAV:   3    -0.383303026071E+02   -0.29230E+02   -0.28830E+02  7388   0.120E+02    0.729E+00
RMM:   4    -0.376600375745E+02    0.67027E+00   -0.92233E+00  5928   0.262E+01    0.421E+00
RMM:   5    -0.369035116548E+02    0.75653E+00   -0.27855E+00  5930   0.114E+01    0.721E-01
RMM:   6    -0.369046603296E+02   -0.11487E-02   -0.29744E-02  6367   0.202E+00    0.519E-01
RMM:   7    -0.368954155204E+02    0.92448E-02   -0.33270E-02  5941   0.159E+00    0.346E-01
RMM:   8    -0.368894083871E+02    0.60071E-02   -0.80502E-03  5934   0.594E-01    0.133E-01
RMM:   9    -0.368891067777E+02    0.30161E-03   -0.19987E-02  5932   0.834E-01    0.155E-01
RMM:  10    -0.368890531029E+02    0.53675E-04   -0.23520E-03  5932   0.361E-01    0.300E-02
RMM:  11    -0.368915637858E+02   -0.25107E-02   -0.64998E-04  5936   0.179E-01    0.471E-02
RMM:  12    -0.368919847648E+02   -0.42098E-03   -0.20514E-04  5937   0.108E-01    0.415E-03
RMM:  13    -0.368922634257E+02   -0.27866E-03   -0.71530E-05  6032   0.381E-02    0.418E-03
RMM:  14    -0.368923534688E+02   -0.90043E-04   -0.46153E-05  5956   0.185E-02    0.168E-03
RMM:  15    -0.368923721301E+02   -0.18661E-04   -0.83587E-05  5995   0.759E-03    0.118E-03
RMM:  16    -0.368923923511E+02   -0.20221E-04   -0.10723E-04  5951   0.533E-03    0.646E-04
RMM:  17    -0.368924096827E+02   -0.17332E-04   -0.91491E-05  6112   0.259E-03    0.632E-04
RMM:  18    -0.368924300643E+02   -0.20382E-04   -0.15141E-04  5933   0.307E-03    0.248E-04
RMM:  19    -0.369206966749E+02   -0.28267E-01   -0.35521E-04  6086   0.239E-03    0.342E-02
RMM:  20    -0.369226575082E+02   -0.19608E-02   -0.13512E-02  4134   0.189E-02    0.355E-02
RMM:  21    -0.369227316632E+02   -0.74155E-04   -0.69054E-04  3920   0.370E-03    0.356E-02
RMM:  22    -0.369227320237E+02   -0.36054E-06   -0.23126E-06  5929   0.759E-04    0.357E-02
RMM:  23    -0.369227314062E+02    0.61746E-06   -0.81114E-07  5928   0.161E-03    0.352E-02
RMM:  24    -0.369227304819E+02    0.92436E-06   -0.79368E-08  6030   0.151E-03    0.347E-02
RMM:  25    -0.369227293339E+02    0.11480E-05   -0.10510E-07  6007   0.210E-03    0.342E-02
RMM:  26    -0.369227276745E+02    0.16594E-05   -0.21115E-07  6018   0.326E-03    0.334E-02
RMM:  27    -0.369227275193E+02    0.15524E-06   -0.12158E-08  6160   0.748E-04    0.333E-02
RMM:  28    -0.369227275019E+02    0.17397E-07   -0.13524E-08  5928   0.646E-04    0.333E-02
RMM:  29    -0.369227259167E+02    0.15852E-05   -0.91122E-08  5928   0.174E-03    0.329E-02
RMM:  30    -0.369227108657E+02    0.15051E-04   -0.29048E-07  5964   0.386E-03    0.308E-02
RMM:  31    -0.369226626828E+02    0.48183E-04   -0.14176E-06  5967   0.871E-03    0.268E-02
RMM:  32    -0.369226341262E+02    0.28557E-04   -0.70907E-07  5950   0.594E-03    0.255E-02
RMM:  33    -0.369226203089E+02    0.13817E-04   -0.27665E-07  5989   0.333E-03    0.253E-02
RMM:  34    -0.369226150490E+02    0.52598E-05   -0.83633E-08  5932   0.173E-03    0.255E-02
RMM:  35    -0.369226150382E+02    0.10830E-07   -0.37063E-09  5963   0.425E-04    0.255E-02
RMM:  36    -0.369226154968E+02   -0.45861E-06   -0.69227E-10  5405   0.212E-04    0.255E-02
RMM:  37    -0.369226174883E+02   -0.19915E-05   -0.10232E-08  5928   0.861E-04    0.251E-02
RMM:  38    -0.369226343169E+02   -0.16829E-04   -0.43134E-07  5928   0.468E-03    0.222E-02
RMM:  39    -0.369226491864E+02   -0.14870E-04   -0.46318E-07  5928   0.453E-03    0.200E-02
RMM:  40    -0.369226587296E+02   -0.95432E-05   -0.32579E-07  5928   0.364E-03    0.185E-02
RMM:  41    -0.369226661194E+02   -0.73898E-05   -0.35084E-07  5928   0.364E-03    0.171E-02
RMM:  42    -0.369226734458E+02   -0.73265E-05   -0.69447E-07  5928   0.507E-03    0.153E-02
RMM:  43    -0.369226805631E+02   -0.71172E-05   -0.14546E-06  5928   0.733E-03    0.128E-02
RMM:  44    -0.369226873175E+02   -0.67544E-05   -0.26997E-06  5928   0.101E-02    0.947E-03
RMM:  45    -0.369226933920E+02   -0.60745E-05   -0.34901E-06  5928   0.115E-02    0.572E-03
RMM:  46    -0.369226981350E+02   -0.47430E-05   -0.24134E-06  5928   0.967E-03    0.271E-03
RMM:  47    -0.369227006738E+02   -0.25388E-05   -0.90161E-07  5928   0.602E-03    0.986E-04
RMM:  48    -0.369227015417E+02   -0.86789E-06   -0.20572E-07  6028   0.295E-03    0.258E-04
RMM:  49    -0.369227017406E+02   -0.19891E-06   -0.23488E-08  6215   0.103E-03    0.903E-05
RMM:  50    -0.369227017618E+02   -0.21207E-07   -0.15476E-09  5894   0.285E-04    0.756E-05
RMM:  51    -0.369227018101E+02   -0.48280E-07   -0.17746E-10  4344   0.102E-04    0.659E-05
RMM:  52    -0.369227018148E+02   -0.47232E-08   -0.54571E-10  5099   0.150E-04    0.134E-05
RMM:  53    -0.369227018144E+02    0.40791E-09   -0.80141E-11  3920   0.768E-05    0.390E-06
RMM:  54    -0.369227018138E+02    0.57184E-09   -0.30549E-11  3822   0.545E-05    0.705E-06
RMM:  55    -0.369227018134E+02    0.37699E-09   -0.76122E-12  3580   0.371E-05    0.358E-06
RMM:  56    -0.369227018135E+02   -0.41837E-10   -0.45889E-12  3194   0.313E-05
   1 F= -.36922702E+02 E0= -.36922657E+02  d E =-.369227E+02
       N       E                     dE             d eps       ncg     rms          rms(c)
DAV:   1    -0.369227017170E+02    0.96465E-07   -0.86145E-06  6952   0.276E-02    0.592E-04
RMM:   2    -0.369227017219E+02   -0.49434E-08   -0.13732E-07  5942   0.332E-03    0.421E-04
RMM:   3    -0.369227017194E+02    0.25435E-08   -0.24263E-08  5965   0.126E-03    0.103E-04
RMM:   4    -0.369227017185E+02    0.86072E-09   -0.14163E-09  5930   0.301E-04    0.302E-05
RMM:   5    -0.369227017187E+02   -0.24136E-09   -0.80300E-11  3855   0.797E-05    0.130E-05
RMM:   6    -0.369227017189E+02   -0.16951E-09   -0.20264E-11  3496   0.496E-05    0.237E-06
RMM:   7    -0.369227017190E+02   -0.68098E-10   -0.12849E-11  3413   0.402E-05
   2 F= -.36922702E+02 E0= -.36922658E+02  d E =0.944890E-07
       N       E                     dE             d eps       ncg     rms          rms(c)
DAV:   1    -0.369227018217E+02   -0.10274E-06   -0.55176E-06  6536   0.221E-02    0.475E-04
RMM:   2    -0.369227018251E+02   -0.34869E-08   -0.86901E-08  5945   0.265E-03    0.338E-04
RMM:   3    -0.369227018208E+02    0.43135E-08   -0.15469E-08  5960   0.100E-03    0.812E-05
RMM:   4    -0.369227018207E+02    0.15052E-09   -0.89158E-10  5724   0.240E-04    0.241E-05
RMM:   5    -0.369227018204E+02    0.28729E-09   -0.39565E-11  3745   0.669E-05    0.102E-05
RMM:   6    -0.369227018206E+02   -0.23488E-09   -0.17461E-11  3358   0.462E-05    0.197E-06
RMM:   7    -0.369227018208E+02   -0.18611E-09   -0.77323E-12  3077   0.367E-05    0.860E-07
RMM:   8    -0.369227018209E+02   -0.90608E-10   -0.56147E-12  2889   0.310E-05
   3 F= -.36922702E+02 E0= -.36922657E+02  d E =-.101921E-06
