<?xml version="1.0" encoding="ISO-8859-1"?>
<modeling>
 <generator>
  <i name="program" type="string">vasp </i>
  <i name="version" type="string">5.3.5  </i>
  <i name="subversion" type="string">31Mar14 (build Mar 02 2015 18:14:16) complex                          parallel </i>
  <i name="platform" type="string">LinuxIFC </i>
  <i name="date" type="string">2018 08 10 </i>
  <i name="time" type="string">15:19:22 </i>
 </generator>
 <incar>
  <i type="string" name="SYSTEM">  gr</i>
  <i type="string" name="PREC">accurate : accuracy</i>
  <i type="string" name="ALGO"> FAST.</i>
  <i type="int" name="NELM">   100</i>
  <i type="int" name="NELMDL">    -3</i>
  <i type="int" name="NELMIN">     5</i>
  <i type="int" name="IBRION">     1</i>
  <i name="EDIFF">      0.00000000</i>
  <i name="EDIFFG">     -0.00000100</i>
  <i type="int" name="NSW">   400</i>
  <i type="int" name="ISIF">     2</i>
  <i name="ENCUT">   2000.00000000</i>
  <i type="int" name="ISMEAR">     0</i>
  <i name="SIGMA">      0.05000000</i>
  <i type="int" name="NWRITE">     2</i>
  <i type="logical" name="LWAVE"> F  </i>
  <i type="logical" name="LCHARG"> F  </i>
  <i type="int" name="NELM">   100</i>
 </incar>
 <kpoints>
  <generation param="Gamma">
   <v type="int" name="divisions">      24       36        1 </v>
   <v name="usershift">      0.00000000       0.00000000       0.00000000 </v>
   <v name="genvec1">      0.04166667       0.00000000       0.00000000 </v>
   <v name="genvec2">      0.00000000       0.02777778       0.00000000 </v>
   <v name="genvec3">      0.00000000       0.00000000       1.00000000 </v>
   <v name="shift">      0.00000000       0.00000000       0.00000000 </v>
  </generation>
  <varray name="kpointlist" >
   <v>       0.00000000       0.00000000       0.00000000 </v>
   <v>       0.04166667       0.00000000       0.00000000 </v>
   <v>       0.08333333       0.00000000       0.00000000 </v>
   <v>       0.12500000       0.00000000       0.00000000 </v>
   <v>       0.16666667       0.00000000       0.00000000 </v>
   <v>       0.20833333       0.00000000       0.00000000 </v>
   <v>       0.25000000       0.00000000       0.00000000 </v>
   <v>       0.29166667       0.00000000       0.00000000 </v>
   <v>       0.33333333       0.00000000       0.00000000 </v>
   <v>       0.37500000       0.00000000       0.00000000 </v>
   <v>       0.41666667       0.00000000       0.00000000 </v>
   <v>       0.45833333       0.00000000       0.00000000 </v>
   <v>       0.50000000       0.00000000       0.00000000 </v>
   <v>       0.00000000       0.02777778       0.00000000 </v>
   <v>       0.04166667       0.02777778       0.00000000 </v>
   <v>       0.08333333       0.02777778       0.00000000 </v>
   <v>       0.12500000       0.02777778       0.00000000 </v>
   <v>       0.16666667       0.02777778       0.00000000 </v>
   <v>       0.20833333       0.02777778       0.00000000 </v>
   <v>       0.25000000       0.02777778       0.00000000 </v>
   <v>       0.29166667       0.02777778       0.00000000 </v>
   <v>       0.33333333       0.02777778       0.00000000 </v>
   <v>       0.37500000       0.02777778       0.00000000 </v>
   <v>       0.41666667       0.02777778       0.00000000 </v>
   <v>       0.45833333       0.02777778       0.00000000 </v>
   <v>       0.50000000       0.02777778       0.00000000 </v>
   <v>       0.00000000       0.05555556       0.00000000 </v>
   <v>       0.04166667       0.05555556       0.00000000 </v>
   <v>       0.08333333       0.05555556       0.00000000 </v>
   <v>       0.12500000       0.05555556       0.00000000 </v>
   <v>       0.16666667       0.05555556       0.00000000 </v>
   <v>       0.20833333       0.05555556       0.00000000 </v>
   <v>       0.25000000       0.05555556       0.00000000 </v>
   <v>       0.29166667       0.05555556       0.00000000 </v>
   <v>       0.33333333       0.05555556       0.00000000 </v>
   <v>       0.37500000       0.05555556       0.00000000 </v>
   <v>       0.41666667       0.05555556       0.00000000 </v>
   <v>       0.45833333       0.05555556       0.00000000 </v>
   <v>       0.50000000       0.05555556       0.00000000 </v>
   <v>       0.00000000       0.08333333       0.00000000 </v>
   <v>       0.04166667       0.08333333       0.00000000 </v>
   <v>       0.08333333       0.08333333       0.00000000 </v>
   <v>       0.12500000       0.08333333       0.00000000 </v>
   <v>       0.16666667       0.08333333       0.00000000 </v>
   <v>       0.20833333       0.08333333       0.00000000 </v>
   <v>       0.25000000       0.08333333       0.00000000 </v>
   <v>       0.29166667       0.08333333       0.00000000 </v>
   <v>       0.33333333       0.08333333       0.00000000 </v>
   <v>       0.37500000       0.08333333       0.00000000 </v>
   <v>       0.41666667       0.08333333       0.00000000 </v>
   <v>       0.45833333       0.08333333       0.00000000 </v>
   <v>       0.50000000       0.08333333       0.00000000 </v>
   <v>       0.00000000       0.11111111       0.00000000 </v>
   <v>       0.04166667       0.11111111       0.00000000 </v>
   <v>       0.08333333       0.11111111       0.00000000 </v>
   <v>       0.12500000       0.11111111       0.00000000 </v>
   <v>       0.16666667       0.11111111       0.00000000 </v>
   <v>       0.20833333       0.11111111       0.00000000 </v>
   <v>       0.25000000       0.11111111       0.00000000 </v>
   <v>       0.29166667       0.11111111       0.00000000 </v>
   <v>       0.33333333       0.11111111       0.00000000 </v>
   <v>       0.37500000       0.11111111       0.00000000 </v>
   <v>       0.41666667       0.11111111       0.00000000 </v>
   <v>       0.45833333       0.11111111       0.00000000 </v>
   <v>       0.50000000       0.11111111       0.00000000 </v>
   <v>       0.00000000       0.13888889       0.00000000 </v>
   <v>       0.04166667       0.13888889       0.00000000 </v>
   <v>       0.08333333       0.13888889       0.00000000 </v>
   <v>       0.12500000       0.13888889       0.00000000 </v>
   <v>       0.16666667       0.13888889       0.00000000 </v>
   <v>       0.20833333       0.13888889       0.00000000 </v>
   <v>       0.25000000       0.13888889       0.00000000 </v>
   <v>       0.29166667       0.13888889       0.00000000 </v>
   <v>       0.33333333       0.13888889       0.00000000 </v>
   <v>       0.37500000       0.13888889       0.00000000 </v>
   <v>       0.41666667       0.13888889       0.00000000 </v>
   <v>       0.45833333       0.13888889       0.00000000 </v>
   <v>       0.50000000       0.13888889       0.00000000 </v>
   <v>       0.00000000       0.16666667       0.00000000 </v>
   <v>       0.04166667       0.16666667       0.00000000 </v>
   <v>       0.08333333       0.16666667       0.00000000 </v>
   <v>       0.12500000       0.16666667       0.00000000 </v>
   <v>       0.16666667       0.16666667       0.00000000 </v>
   <v>       0.20833333       0.16666667       0.00000000 </v>
   <v>       0.25000000       0.16666667       0.00000000 </v>
   <v>       0.29166667       0.16666667       0.00000000 </v>
   <v>       0.33333333       0.16666667       0.00000000 </v>
   <v>       0.37500000       0.16666667       0.00000000 </v>
   <v>       0.41666667       0.16666667       0.00000000 </v>
   <v>       0.45833333       0.16666667       0.00000000 </v>
   <v>       0.50000000       0.16666667       0.00000000 </v>
   <v>       0.00000000       0.19444444       0.00000000 </v>
   <v>       0.04166667       0.19444444       0.00000000 </v>
   <v>       0.08333333       0.19444444       0.00000000 </v>
   <v>       0.12500000       0.19444444       0.00000000 </v>
   <v>       0.16666667       0.19444444       0.00000000 </v>
   <v>       0.20833333       0.19444444       0.00000000 </v>
   <v>       0.25000000       0.19444444       0.00000000 </v>
   <v>       0.29166667       0.19444444       0.00000000 </v>
   <v>       0.33333333       0.19444444       0.00000000 </v>
   <v>       0.37500000       0.19444444       0.00000000 </v>
   <v>       0.41666667       0.19444444       0.00000000 </v>
   <v>       0.45833333       0.19444444       0.00000000 </v>
   <v>       0.50000000       0.19444444       0.00000000 </v>
   <v>       0.00000000       0.22222222       0.00000000 </v>
   <v>       0.04166667       0.22222222       0.00000000 </v>
   <v>       0.08333333       0.22222222       0.00000000 </v>
   <v>       0.12500000       0.22222222       0.00000000 </v>
   <v>       0.16666667       0.22222222       0.00000000 </v>
   <v>       0.20833333       0.22222222       0.00000000 </v>
   <v>       0.25000000       0.22222222       0.00000000 </v>
   <v>       0.29166667       0.22222222       0.00000000 </v>
   <v>       0.33333333       0.22222222       0.00000000 </v>
   <v>       0.37500000       0.22222222       0.00000000 </v>
   <v>       0.41666667       0.22222222       0.00000000 </v>
   <v>       0.45833333       0.22222222       0.00000000 </v>
   <v>       0.50000000       0.22222222       0.00000000 </v>
   <v>       0.00000000       0.25000000       0.00000000 </v>
   <v>       0.04166667       0.25000000       0.00000000 </v>
   <v>       0.08333333       0.25000000       0.00000000 </v>
   <v>       0.12500000       0.25000000       0.00000000 </v>
   <v>       0.16666667       0.25000000       0.00000000 </v>
   <v>       0.20833333       0.25000000       0.00000000 </v>
   <v>       0.25000000       0.25000000       0.00000000 </v>
   <v>       0.29166667       0.25000000       0.00000000 </v>
   <v>       0.33333333       0.25000000       0.00000000 </v>
   <v>       0.37500000       0.25000000       0.00000000 </v>
   <v>       0.41666667       0.25000000       0.00000000 </v>
   <v>       0.45833333       0.25000000       0.00000000 </v>
   <v>       0.50000000       0.25000000       0.00000000 </v>
   <v>       0.00000000       0.27777778       0.00000000 </v>
   <v>       0.04166667       0.27777778       0.00000000 </v>
   <v>       0.08333333       0.27777778       0.00000000 </v>
   <v>       0.12500000       0.27777778       0.00000000 </v>
   <v>       0.16666667       0.27777778       0.00000000 </v>
   <v>       0.20833333       0.27777778       0.00000000 </v>
   <v>       0.25000000       0.27777778       0.00000000 </v>
   <v>       0.29166667       0.27777778       0.00000000 </v>
   <v>       0.33333333       0.27777778       0.00000000 </v>
   <v>       0.37500000       0.27777778       0.00000000 </v>
   <v>       0.41666667       0.27777778       0.00000000 </v>
   <v>       0.45833333       0.27777778       0.00000000 </v>
   <v>       0.50000000       0.27777778       0.00000000 </v>
   <v>       0.00000000       0.30555556       0.00000000 </v>
   <v>       0.04166667       0.30555556       0.00000000 </v>
   <v>       0.08333333       0.30555556       0.00000000 </v>
   <v>       0.12500000       0.30555556       0.00000000 </v>
   <v>       0.16666667       0.30555556       0.00000000 </v>
   <v>       0.20833333       0.30555556       0.00000000 </v>
   <v>       0.25000000       0.30555556       0.00000000 </v>
   <v>       0.29166667       0.30555556       0.00000000 </v>
   <v>       0.33333333       0.30555556       0.00000000 </v>
   <v>       0.37500000       0.30555556       0.00000000 </v>
   <v>       0.41666667       0.30555556       0.00000000 </v>
   <v>       0.45833333       0.30555556       0.00000000 </v>
   <v>       0.50000000       0.30555556       0.00000000 </v>
   <v>       0.00000000       0.33333333       0.00000000 </v>
   <v>       0.04166667       0.33333333       0.00000000 </v>
   <v>       0.08333333       0.33333333       0.00000000 </v>
   <v>       0.12500000       0.33333333       0.00000000 </v>
   <v>       0.16666667       0.33333333       0.00000000 </v>
   <v>       0.20833333       0.33333333       0.00000000 </v>
   <v>       0.25000000       0.33333333       0.00000000 </v>
   <v>       0.29166667       0.33333333       0.00000000 </v>
   <v>       0.33333333       0.33333333       0.00000000 </v>
   <v>       0.37500000       0.33333333       0.00000000 </v>
   <v>       0.41666667       0.33333333       0.00000000 </v>
   <v>       0.45833333       0.33333333       0.00000000 </v>
   <v>       0.50000000       0.33333333       0.00000000 </v>
   <v>       0.00000000       0.36111111       0.00000000 </v>
   <v>       0.04166667       0.36111111       0.00000000 </v>
   <v>       0.08333333       0.36111111       0.00000000 </v>
   <v>       0.12500000       0.36111111       0.00000000 </v>
   <v>       0.16666667       0.36111111       0.00000000 </v>
   <v>       0.20833333       0.36111111       0.00000000 </v>
   <v>       0.25000000       0.36111111       0.00000000 </v>
   <v>       0.29166667       0.36111111       0.00000000 </v>
   <v>       0.33333333       0.36111111       0.00000000 </v>
   <v>       0.37500000       0.36111111       0.00000000 </v>
   <v>       0.41666667       0.36111111       0.00000000 </v>
   <v>       0.45833333       0.36111111       0.00000000 </v>
   <v>       0.50000000       0.36111111       0.00000000 </v>
   <v>       0.00000000       0.38888889       0.00000000 </v>
   <v>       0.04166667       0.38888889       0.00000000 </v>
   <v>       0.08333333       0.38888889       0.00000000 </v>
   <v>       0.12500000       0.38888889       0.00000000 </v>
   <v>       0.16666667       0.38888889       0.00000000 </v>
   <v>       0.20833333       0.38888889       0.00000000 </v>
   <v>       0.25000000       0.38888889       0.00000000 </v>
   <v>       0.29166667       0.38888889       0.00000000 </v>
   <v>       0.33333333       0.38888889       0.00000000 </v>
   <v>       0.37500000       0.38888889       0.00000000 </v>
   <v>       0.41666667       0.38888889       0.00000000 </v>
   <v>       0.45833333       0.38888889       0.00000000 </v>
   <v>       0.50000000       0.38888889       0.00000000 </v>
   <v>       0.00000000       0.41666667       0.00000000 </v>
   <v>       0.04166667       0.41666667       0.00000000 </v>
   <v>       0.08333333       0.41666667       0.00000000 </v>
   <v>       0.12500000       0.41666667       0.00000000 </v>
   <v>       0.16666667       0.41666667       0.00000000 </v>
   <v>       0.20833333       0.41666667       0.00000000 </v>
   <v>       0.25000000       0.41666667       0.00000000 </v>
   <v>       0.29166667       0.41666667       0.00000000 </v>
   <v>       0.33333333       0.41666667       0.00000000 </v>
   <v>       0.37500000       0.41666667       0.00000000 </v>
   <v>       0.41666667       0.41666667       0.00000000 </v>
   <v>       0.45833333       0.41666667       0.00000000 </v>
   <v>       0.50000000       0.41666667       0.00000000 </v>
   <v>       0.00000000       0.44444444       0.00000000 </v>
   <v>       0.04166667       0.44444444       0.00000000 </v>
   <v>       0.08333333       0.44444444       0.00000000 </v>
   <v>       0.12500000       0.44444444       0.00000000 </v>
   <v>       0.16666667       0.44444444       0.00000000 </v>
   <v>       0.20833333       0.44444444       0.00000000 </v>
   <v>       0.25000000       0.44444444       0.00000000 </v>
   <v>       0.29166667       0.44444444       0.00000000 </v>
   <v>       0.33333333       0.44444444       0.00000000 </v>
   <v>       0.37500000       0.44444444       0.00000000 </v>
   <v>       0.41666667       0.44444444       0.00000000 </v>
   <v>       0.45833333       0.44444444       0.00000000 </v>
   <v>       0.50000000       0.44444444       0.00000000 </v>
   <v>       0.00000000       0.47222222       0.00000000 </v>
   <v>       0.04166667       0.47222222       0.00000000 </v>
   <v>       0.08333333       0.47222222       0.00000000 </v>
   <v>       0.12500000       0.47222222       0.00000000 </v>
   <v>       0.16666667       0.47222222       0.00000000 </v>
   <v>       0.20833333       0.47222222       0.00000000 </v>
   <v>       0.25000000       0.47222222       0.00000000 </v>
   <v>       0.29166667       0.47222222       0.00000000 </v>
   <v>       0.33333333       0.47222222       0.00000000 </v>
   <v>       0.37500000       0.47222222       0.00000000 </v>
   <v>       0.41666667       0.47222222       0.00000000 </v>
   <v>       0.45833333       0.47222222       0.00000000 </v>
   <v>       0.50000000       0.47222222       0.00000000 </v>
   <v>       0.00000000       0.50000000       0.00000000 </v>
   <v>       0.04166667       0.50000000       0.00000000 </v>
   <v>       0.08333333       0.50000000       0.00000000 </v>
   <v>       0.12500000       0.50000000       0.00000000 </v>
   <v>       0.16666667       0.50000000       0.00000000 </v>
   <v>       0.20833333       0.50000000       0.00000000 </v>
   <v>       0.25000000       0.50000000       0.00000000 </v>
   <v>       0.29166667       0.50000000       0.00000000 </v>
   <v>       0.33333333       0.50000000       0.00000000 </v>
   <v>       0.37500000       0.50000000       0.00000000 </v>
   <v>       0.41666667       0.50000000       0.00000000 </v>
   <v>       0.45833333       0.50000000       0.00000000 </v>
   <v>       0.50000000       0.50000000       0.00000000 </v>
  </varray>
  <varray name="weights" >
   <v>       0.00115741 </v>
   <v>       0.00231481 </v>
   <v>       0.00231481 </v>
   <v>       0.00231481 </v>
   <v>       0.00231481 </v>
   <v>       0.00231481 </v>
   <v>       0.00231481 </v>
   <v>       0.00231481 </v>
   <v>       0.00231481 </v>
   <v>       0.00231481 </v>
   <v>       0.00231481 </v>
   <v>       0.00231481 </v>
   <v>       0.00115741 </v>
   <v>       0.00231481 </v>
   <v>       0.00462963 </v>
   <v>       0.00462963 </v>
   <v>       0.00462963 </v>
   <v>       0.00462963 </v>
   <v>       0.00462963 </v>
   <v>       0.00462963 </v>
   <v>       0.00462963 </v>
   <v>       0.00462963 </v>
   <v>       0.00462963 </v>
   <v>       0.00462963 </v>
   <v>       0.00462963 </v>
   <v>       0.00231481 </v>
   <v>       0.00231481 </v>
   <v>       0.00462963 </v>
   <v>       0.00462963 </v>
   <v>       0.00462963 </v>
   <v>       0.00462963 </v>
   <v>       0.00462963 </v>
   <v>       0.00462963 </v>
   <v>       0.00462963 </v>
   <v>       0.00462963 </v>
   <v>       0.00462963 </v>
   <v>       0.00462963 </v>
   <v>       0.00462963 </v>
   <v>       0.00231481 </v>
   <v>       0.00231481 </v>
   <v>       0.00462963 </v>
   <v>       0.00462963 </v>
   <v>       0.00462963 </v>
   <v>       0.00462963 </v>
   <v>       0.00462963 </v>
   <v>       0.00462963 </v>
   <v>       0.00462963 </v>
   <v>       0.00462963 </v>
   <v>       0.00462963 </v>
   <v>       0.00462963 </v>
   <v>       0.00462963 </v>
   <v>       0.00231481 </v>
   <v>       0.00231481 </v>
   <v>       0.00462963 </v>
   <v>       0.00462963 </v>
   <v>       0.00462963 </v>
   <v>       0.00462963 </v>
   <v>       0.00462963 </v>
   <v>       0.00462963 </v>
   <v>       0.00462963 </v>
   <v>       0.00462963 </v>
   <v>       0.00462963 </v>
   <v>       0.00462963 </v>
   <v>       0.00462963 </v>
   <v>       0.00231481 </v>
   <v>       0.00231481 </v>
   <v>       0.00462963 </v>
   <v>       0.00462963 </v>
   <v>       0.00462963 </v>
   <v>       0.00462963 </v>
   <v>       0.00462963 </v>
   <v>       0.00462963 </v>
   <v>       0.00462963 </v>
   <v>       0.00462963 </v>
   <v>       0.00462963 </v>
   <v>       0.00462963 </v>
   <v>       0.00462963 </v>
   <v>       0.00231481 </v>
   <v>       0.00231481 </v>
   <v>       0.00462963 </v>
   <v>       0.00462963 </v>
   <v>       0.00462963 </v>
   <v>       0.00462963 </v>
   <v>       0.00462963 </v>
   <v>       0.00462963 </v>
   <v>       0.00462963 </v>
   <v>       0.00462963 </v>
   <v>       0.00462963 </v>
   <v>       0.00462963 </v>
   <v>       0.00462963 </v>
   <v>       0.00231481 </v>
   <v>       0.00231481 </v>
   <v>       0.00462963 </v>
   <v>       0.00462963 </v>
   <v>       0.00462963 </v>
   <v>       0.00462963 </v>
   <v>       0.00462963 </v>
   <v>       0.00462963 </v>
   <v>       0.00462963 </v>
   <v>       0.00462963 </v>
   <v>       0.00462963 </v>
   <v>       0.00462963 </v>
   <v>       0.00462963 </v>
   <v>       0.00231481 </v>
   <v>       0.00231481 </v>
   <v>       0.00462963 </v>
   <v>       0.00462963 </v>
   <v>       0.00462963 </v>
   <v>       0.00462963 </v>
   <v>       0.00462963 </v>
   <v>       0.00462963 </v>
   <v>       0.00462963 </v>
   <v>       0.00462963 </v>
   <v>       0.00462963 </v>
   <v>       0.00462963 </v>
   <v>       0.00462963 </v>
   <v>       0.00231481 </v>
   <v>       0.00231481 </v>
   <v>       0.00462963 </v>
   <v>       0.00462963 </v>
   <v>       0.00462963 </v>
   <v>       0.00462963 </v>
   <v>       0.00462963 </v>
   <v>       0.00462963 </v>
   <v>       0.00462963 </v>
   <v>       0.00462963 </v>
   <v>       0.00462963 </v>
   <v>       0.00462963 </v>
   <v>       0.00462963 </v>
   <v>       0.00231481 </v>
   <v>       0.00231481 </v>
   <v>       0.00462963 </v>
   <v>       0.00462963 </v>
   <v>       0.00462963 </v>
   <v>       0.00462963 </v>
   <v>       0.00462963 </v>
   <v>       0.00462963 </v>
   <v>       0.00462963 </v>
   <v>       0.00462963 </v>
   <v>       0.00462963 </v>
   <v>       0.00462963 </v>
   <v>       0.00462963 </v>
   <v>       0.00231481 </v>
   <v>       0.00231481 </v>
   <v>       0.00462963 </v>
   <v>       0.00462963 </v>
   <v>       0.00462963 </v>
   <v>       0.00462963 </v>
   <v>       0.00462963 </v>
   <v>       0.00462963 </v>
   <v>       0.00462963 </v>
   <v>       0.00462963 </v>
   <v>       0.00462963 </v>
   <v>       0.00462963 </v>
   <v>       0.00462963 </v>
   <v>       0.00231481 </v>
   <v>       0.00231481 </v>
   <v>       0.00462963 </v>
   <v>       0.00462963 </v>
   <v>       0.00462963 </v>
   <v>       0.00462963 </v>
   <v>       0.00462963 </v>
   <v>       0.00462963 </v>
   <v>       0.00462963 </v>
   <v>       0.00462963 </v>
   <v>       0.00462963 </v>
   <v>       0.00462963 </v>
   <v>       0.00462963 </v>
   <v>       0.00231481 </v>
   <v>       0.00231481 </v>
   <v>       0.00462963 </v>
   <v>       0.00462963 </v>
   <v>       0.00462963 </v>
   <v>       0.00462963 </v>
   <v>       0.00462963 </v>
   <v>       0.00462963 </v>
   <v>       0.00462963 </v>
   <v>       0.00462963 </v>
   <v>       0.00462963 </v>
   <v>       0.00462963 </v>
   <v>       0.00462963 </v>
   <v>       0.00231481 </v>
   <v>       0.00231481 </v>
   <v>       0.00462963 </v>
   <v>       0.00462963 </v>
   <v>       0.00462963 </v>
   <v>       0.00462963 </v>
   <v>       0.00462963 </v>
   <v>       0.00462963 </v>
   <v>       0.00462963 </v>
   <v>       0.00462963 </v>
   <v>       0.00462963 </v>
   <v>       0.00462963 </v>
   <v>       0.00462963 </v>
   <v>       0.00231481 </v>
   <v>       0.00231481 </v>
   <v>       0.00462963 </v>
   <v>       0.00462963 </v>
   <v>       0.00462963 </v>
   <v>       0.00462963 </v>
   <v>       0.00462963 </v>
   <v>       0.00462963 </v>
   <v>       0.00462963 </v>
   <v>       0.00462963 </v>
   <v>       0.00462963 </v>
   <v>       0.00462963 </v>
   <v>       0.00462963 </v>
   <v>       0.00231481 </v>
   <v>       0.00231481 </v>
   <v>       0.00462963 </v>
   <v>       0.00462963 </v>
   <v>       0.00462963 </v>
   <v>       0.00462963 </v>
   <v>       0.00462963 </v>
   <v>       0.00462963 </v>
   <v>       0.00462963 </v>
   <v>       0.00462963 </v>
   <v>       0.00462963 </v>
   <v>       0.00462963 </v>
   <v>       0.00462963 </v>
   <v>       0.00231481 </v>
   <v>       0.00231481 </v>
   <v>       0.00462963 </v>
   <v>       0.00462963 </v>
   <v>       0.00462963 </v>
   <v>       0.00462963 </v>
   <v>       0.00462963 </v>
   <v>       0.00462963 </v>
   <v>       0.00462963 </v>
   <v>       0.00462963 </v>
   <v>       0.00462963 </v>
   <v>       0.00462963 </v>
   <v>       0.00462963 </v>
   <v>       0.00231481 </v>
   <v>       0.00115741 </v>
   <v>       0.00231481 </v>
   <v>       0.00231481 </v>
   <v>       0.00231481 </v>
   <v>       0.00231481 </v>
   <v>       0.00231481 </v>
   <v>       0.00231481 </v>
   <v>       0.00231481 </v>
   <v>       0.00231481 </v>
   <v>       0.00231481 </v>
   <v>       0.00231481 </v>
   <v>       0.00231481 </v>
   <v>       0.00115741 </v>
  </varray>
 </kpoints>
 <parameters>
  <separator name="general" >
   <i type="string" name="SYSTEM">gr</i>
   <i type="logical" name="LCOMPAT"> F  </i>
  </separator>
  <separator name="electronic" >
   <i type="string" name="PREC">accura</i>
   <i name="ENMAX">   2000.00000000</i>
   <i name="ENAUG">    644.87300000</i>
   <i name="EDIFF">      0.00000000</i>
   <i type="int" name="IALGO">    68</i>
   <i type="int" name="IWAVPR">    11</i>
   <i type="int" name="NBANDS">    12</i>
   <i name="NELECT">     16.00000000</i>
   <i type="int" name="TURBO">     0</i>
   <i type="int" name="IRESTART">     0</i>
   <i type="int" name="NREBOOT">     0</i>
   <i type="int" name="NMIN">     0</i>
   <i name="EREF">      0.00000000</i>
   <separator name="electronic smearing" >
    <i type="int" name="ISMEAR">     0</i>
    <i name="SIGMA">      0.05000000</i>
    <i name="KSPACING">      0.50000000</i>
    <i type="logical" name="KGAMMA"> T  </i>
   </separator>
   <separator name="electronic projectors" >
    <i type="logical" name="LREAL"> F  </i>
    <v name="ROPT">      0.00000000</v>
    <i type="int" name="LMAXPAW">  -100</i>
    <i type="int" name="LMAXMIX">     2</i>
    <i type="logical" name="NLSPLINE"> F  </i>
   </separator>
   <separator name="electronic startup" >
    <i type="int" name="ISTART">     0</i>
    <i type="int" name="ICHARG">     2</i>
    <i type="int" name="INIWAV">     1</i>
   </separator>
   <separator name="electronic spin" >
    <i type="int" name="ISPIN">     1</i>
    <i type="logical" name="LNONCOLLINEAR"> F  </i>
    <v name="MAGMOM">      1.00000000      1.00000000      1.00000000      1.00000000</v>
    <i name="NUPDOWN">     -1.00000000</i>
    <i type="logical" name="LSORBIT"> F  </i>
    <v name="SAXIS">      0.00000000      0.00000000      1.00000000</v>
    <i type="logical" name="LSPIRAL"> F  </i>
    <v name="QSPIRAL">      0.00000000      0.00000000      0.00000000</v>
    <i type="logical" name="LZEROZ"> F  </i>
   </separator>
   <separator name="electronic exchange-correlation" >
    <i type="logical" name="LASPH"> F  </i>
    <i type="logical" name="LMETAGGA"> F  </i>
   </separator>
   <separator name="electronic convergence" >
    <i type="int" name="NELM">   100</i>
    <i type="int" name="NELMDL">    -3</i>
    <i type="int" name="NELMIN">     5</i>
    <i name="ENINI">   2000.00000000</i>
    <separator name="electronic convergence detail" >
     <i type="logical" name="LDIAG"> T  </i>
     <i type="logical" name="LSUBROT"> F  </i>
     <i name="WEIMIN">      0.00100000</i>
     <i name="EBREAK">      0.00000000</i>
     <i name="DEPER">      0.30000000</i>
     <i type="int" name="NRMM">     4</i>
     <i name="TIME">      0.40000000</i>
    </separator>
   </separator>
   <separator name="electronic mixer" >
    <i name="AMIX">      0.40000000</i>
    <i name="BMIX">      1.00000000</i>
    <i name="AMIN">      0.10000000</i>
    <i name="AMIX_MAG">      1.60000000</i>
    <i name="BMIX_MAG">      1.00000000</i>
    <separator name="electronic mixer details" >
     <i type="int" name="IMIX">     4</i>
     <i type="int" name="MAXMIX">   -45</i>
     <i name="WC">    100.00000000</i>
     <i type="int" name="INIMIX">     1</i>
     <i type="int" name="MIXPRE">     1</i>
     <i type="int" name="MREMOVE">     5</i>
    </separator>
   </separator>
   <separator name="electronic dipolcorrection" >
    <i type="logical" name="LDIPOL"> F  </i>
    <i type="logical" name="LMONO"> F  </i>
    <i type="int" name="IDIPOL">     0</i>
    <i name="EPSILON">      1.00000000</i>
    <v name="DIPOL">   -100.00000000   -100.00000000   -100.00000000</v>
    <i name="EFIELD">      0.00000000</i>
   </separator>
  </separator>
  <separator name="grids" >
   <i type="int" name="NGX">    64</i>
   <i type="int" name="NGY">    36</i>
   <i type="int" name="NGZ">   294</i>
   <i type="int" name="NGXF">   128</i>
   <i type="int" name="NGYF">    72</i>
   <i type="int" name="NGZF">   588</i>
   <i type="logical" name="ADDGRID"> F  </i>
  </separator>
  <separator name="ionic" >
   <i type="int" name="NSW">   400</i>
   <i type="int" name="IBRION">     1</i>
   <i type="int" name="ISIF">     2</i>
   <i name="PSTRESS">      0.00000000</i>
   <i name="EDIFFG">     -0.00000100</i>
   <i type="int" name="NFREE">     0</i>
   <i name="POTIM">      0.50000000</i>
   <i name="SMASS">     -3.00000000</i>
   <i name="SCALEE">      1.00000000</i>
  </separator>
  <separator name="ionic md" >
   <i name="TEBEG">      0.00010000</i>
   <i name="TEEND">      0.00010000</i>
   <i type="int" name="NBLOCK">     1</i>
   <i type="int" name="KBLOCK">   400</i>
   <i type="int" name="NPACO">   256</i>
   <i name="APACO">     16.00000000</i>
  </separator>
  <separator name="symmetry" >
   <i type="int" name="ISYM">     2</i>
   <i name="SYMPREC">      0.00001000</i>
  </separator>
  <separator name="dos" >
   <i type="logical" name="LORBIT"> F  </i>
   <v name="RWIGS">     -1.00000000</v>
   <i type="int" name="NEDOS">   301</i>
   <i name="EMIN">     10.00000000</i>
   <i name="EMAX">    -10.00000000</i>
   <i name="EFERMI">      0.00000000</i>
  </separator>
  <separator name="writing" >
   <i type="int" name="NWRITE">     2</i>
   <i type="logical" name="LWAVE"> F  </i>
   <i type="logical" name="LCHARG"> F  </i>
   <i type="logical" name="LPARD"> F  </i>
   <i type="logical" name="LVTOT"> F  </i>
   <i type="logical" name="LVHAR"> F  </i>
   <i type="logical" name="LELF"> F  </i>
   <i type="logical" name="LOPTICS"> F  </i>
   <v name="STM">      0.00000000      0.00000000      0.00000000      0.00000000      0.00000000      0.00000000      0.00000000</v>
  </separator>
  <separator name="performance" >
   <i type="int" name="NPAR">     4</i>
   <i type="int" name="NSIM">     4</i>
   <i type="int" name="NBLK">    -1</i>
   <i type="logical" name="LPLANE"> T  </i>
   <i type="logical" name="LSCALAPACK"> F  </i>
   <i type="logical" name="LSCAAWARE"> F  </i>
   <i type="logical" name="LSCALU"> F  </i>
   <i type="logical" name="LASYNC"> F  </i>
   <i type="logical" name="LORBITALREAL"> F  </i>
  </separator>
  <separator name="miscellaneous" >
   <i type="int" name="IDIOT">     3</i>
   <i type="logical" name="LMUSIC"> F  </i>
   <v name="POMASS">     12.01100000</v>
   <v name="DARWINR">      0.00000000</v>
   <v name="DARWINV">      1.00000000</v>
   <i type="logical" name="LCORR"> T  </i>
  </separator>
  <i type="logical" name="GGA_COMPAT"> T  </i>
  <i type="logical" name="LBERRY"> F  </i>
  <i type="int" name="ICORELEVEL">     0</i>
  <i type="logical" name="LDAU"> F  </i>
  <i type="int" name="I_CONSTRAINED_M">     0</i>
  <separator name="electronic exchange-correlation" >
   <i type="string" name="GGA">--</i>
   <i type="int" name="VOSKOWN">     0</i>
   <i type="logical" name="LHFCALC"> F  </i>
   <i type="string" name="PRECFOCK"></i>
   <i type="logical" name="LSYMGRAD"> F  </i>
   <i type="logical" name="LHFONE"> F  </i>
   <i type="logical" name="LRHFCALC"> F  </i>
   <i type="logical" name="LTHOMAS"> F  </i>
   <i type="logical" name="LMODELHF"> F  </i>
   <i name="ENCUT4O">     -1.00000000</i>
   <i type="int" name="EXXOEP">     0</i>
   <i type="int" name="FOURORBIT">     0</i>
   <i name="AEXX">      0.00000000</i>
   <i name="HFALPHA">      0.00000000</i>
   <i name="MCALPHA">      0.00000000</i>
   <i name="ALDAX">      1.00000000</i>
   <i name="AGGAX">      1.00000000</i>
   <i name="ALDAC">      1.00000000</i>
   <i name="AGGAC">      1.00000000</i>
   <i type="int" name="NKREDX">     1</i>
   <i type="int" name="NKREDY">     1</i>
   <i type="int" name="NKREDZ">     1</i>
   <i type="logical" name="SHIFTRED"> F  </i>
   <i type="logical" name="ODDONLY"> F  </i>
   <i type="logical" name="EVENONLY"> F  </i>
   <i type="int" name="LMAXFOCK">     0</i>
   <i type="int" name="NMAXFOCKAE">     0</i>
   <i type="logical" name="LFOCKAEDFT"> F  </i>
   <i name="HFSCREEN">      0.00000000</i>
   <i name="HFSCREENC">      0.00000000</i>
   <i type="int" name="NBANDSGWLOW">     0</i>
  </separator>
  <separator name="vdW DFT" >
   <i type="logical" name="LUSE_VDW"> F  </i>
   <i name="Zab_VDW">     -0.84910000</i>
   <i name="PARAM1">      0.12340000</i>
   <i name="PARAM2">      1.00000000</i>
   <i name="PARAM3">      0.00000000</i>
  </separator>
  <separator name="model GW" >
   <i type="int" name="MODEL_GW">     0</i>
   <i name="MODEL_EPS0">     31.62568521</i>
   <i name="MODEL_ALPHA">      1.00000000</i>
  </separator>
  <separator name="linear response parameters" >
   <i type="logical" name="LEPSILON"> F  </i>
   <i type="logical" name="LRPA"> F  </i>
   <i type="logical" name="LNABLA"> F  </i>
   <i type="logical" name="LVEL"> F  </i>
   <i type="int" name="KINTER">     0</i>
   <i name="CSHIFT">      0.10000000</i>
   <i name="OMEGAMAX">     -1.00000000</i>
   <i name="DEG_THRESHOLD">      0.00200000</i>
  </separator>
  <separator name="orbital magnetization" >
   <i type="logical" name="NUCIND"> F  </i>
   <v name="MAGPOS">      0.00000000      0.00000000      0.00000000</v>
   <i type="logical" name="LNICSALL"> T  </i>
   <i type="logical" name="ORBITALMAG"> F  </i>
   <i type="logical" name="LMAGBLOCH"> F  </i>
   <i type="logical" name="LCHIMAG"> F  </i>
   <i type="logical" name="LGAUGE"> T  </i>
   <i type="int" name="MAGATOM">     0</i>
   <v name="MAGDIPOL">      0.00000000      0.00000000      0.00000000</v>
   <v name="AVECCONST">      0.00000000      0.00000000      0.00000000</v>
  </separator>
  <separator name="response functions" >
   <i type="logical" name="LADDER"> F  </i>
   <i type="logical" name="LFXC"> F  </i>
   <i type="logical" name="LHARTREE"> T  </i>
   <i type="int" name="IBSE">     0</i>
   <i type="logical" name="LTCTE"> F  </i>
   <i type="logical" name="LTETE"> F  </i>
   <i type="logical" name="LTRIPLET"> F  </i>
   <i type="logical" name="LFXCEPS"> F  </i>
   <i type="logical" name="LFXHEG"> F  </i>
   <i type="logical" name="L2ORDER"> F  </i>
   <i type="logical" name="LUSEW"> F  </i>
   <i name="ENCUTGW">     -2.00000000</i>
   <i name="ENCUTGWSOFT">     -2.00000000</i>
   <i name="ENCUTLF">     -1.00000000</i>
   <i type="int" name="LMAXMP2">    -1</i>
   <i name="SCISSOR">      0.00000000</i>
   <i type="int" name="NOMEGA">     0</i>
   <i type="int" name="NOMEGAR">     0</i>
   <i type="int" name="NBANDSGW">    -1</i>
   <i type="int" name="NBANDSO">    -1</i>
   <i type="int" name="NBANDSV">    -1</i>
   <i type="int" name="NELM">   100</i>
   <i type="int" name="DIM">     3</i>
   <i type="int" name="ANTIRES">     0</i>
   <i name="OMEGAMAX">    -30.00000000</i>
   <i name="OMEGAMIN">    -30.00000000</i>
   <i name="OMEGATL">   -200.00000000</i>
   <i type="int" name="OMEGAGRID">     0</i>
   <i name="CSHIFT">     -0.10000000</i>
   <i type="logical" name="SELFENERGY"> F  </i>
   <i type="logical" name="LSPECTRAL"> F  </i>
   <i type="logical" name="ODDONLYGW"> F  </i>
   <i type="logical" name="EVENONLYGW"> F  </i>
   <i type="int" name="NKREDLFX">     1</i>
   <i type="int" name="NKREDLFY">     1</i>
   <i type="int" name="NKREDLFZ">     1</i>
   <i type="int" name="MAXMEM">  1800</i>
   <i type="int" name="TELESCOPE">     0</i>
   <i type="int" name="TAUPAR">     1</i>
  </separator>
  <separator name="External order field" >
   <i name="OFIELD_KAPPA">      0.00000000</i>
   <v name="OFIELD_K">      0.00000000      0.00000000      0.00000000</v>
   <i name="OFIELD_Q6_NEAR">      0.00000000</i>
   <i name="OFIELD_Q6_FAR">      0.00000000</i>
   <i name="OFIELD_A">      0.00000000</i>
  </separator>
 </parameters>
 <atominfo>
  <atoms>       4 </atoms>
  <types>       1 </types>
  <array name="atoms" >
   <dimension dim="1">ion</dimension>
   <field type="string">element</field>
   <field type="int">atomtype</field>
   <set>
    <rc><c>C </c><c>   1</c></rc>
    <rc><c>C </c><c>   1</c></rc>
    <rc><c>C </c><c>   1</c></rc>
    <rc><c>C </c><c>   1</c></rc>
   </set>
  </array>
  <array name="atomtypes" >
   <dimension dim="1">type</dimension>
   <field type="int">atomspertype</field>
   <field type="string">element</field>
   <field>mass</field>
   <field>valence</field>
   <field type="string">pseudopotential</field>
   <set>
    <rc><c>   4</c><c>C </c><c>     12.01100000</c><c>      4.00000000</c><c> PAW_PBE C 08Apr2002                    </c></rc>
   </set>
  </array>
 </atominfo>
 <structure name="initialpos" >
  <crystal>
   <varray name="basis" >
    <v>       4.26938349       0.00000000       0.00000000 </v>
    <v>       0.00000000       2.47963638       0.00000000 </v>
    <v>       0.00000000       0.00000000      19.91569743 </v>
   </varray>
   <i name="volume">    210.83790140 </i>
   <varray name="rec_basis" >
    <v>       0.23422586       0.00000000       0.00000000 </v>
    <v>       0.00000000       0.40328494       0.00000000 </v>
    <v>       0.00000000       0.00000000       0.05021165 </v>
   </varray>
  </crystal>
  <varray name="positions" >
   <v>       0.00013158       0.00000000       0.00000000 </v>
   <v>       0.16653509       0.50000000       0.00000000 </v>
   <v>       0.50013158       0.50000000       0.00000000 </v>
   <v>       0.66653509       0.00000000       0.00000000 </v>
  </varray>
 </structure>
 <calculation>
  <scstep>
   <time name="dav">  293.13  295.24</time>
   <time name="total">  295.63  297.78</time>
   <energy>
    <i name="alphaZ">      6.18334092 </i>
    <i name="ewald">   2558.32718579 </i>
    <i name="hartreedc">  -2984.56072320 </i>
    <i name="XCdc">     55.04011310 </i>
    <i name="pawpsdc">    151.32577238 </i>
    <i name="pawaedc">   -155.92769107 </i>
    <i name="eentropy">     -0.00132391 </i>
    <i name="bandstr">    -30.02149087 </i>
    <i name="atom">    588.62352690 </i>
    <i name="e_fr_energy">    188.98871006 </i>
    <i name="e_wo_entrp">    188.99003396 </i>
    <i name="e_0_energy">    188.98937201 </i>
   </energy>
  </scstep>
  <scstep>
   <time name="dav">  443.85  446.65</time>
   <time name="total">  443.86  446.67</time>
   <energy>
    <i name="e_fr_energy">     -9.09993310 </i>
    <i name="e_wo_entrp">     -9.09969869 </i>
    <i name="e_0_energy">     -9.09981589 </i>
   </energy>
  </scstep>
  <scstep>
   <time name="dav">  341.78  344.04</time>
   <time name="total">  371.46  374.21</time>
   <energy>
    <i name="e_fr_energy">    -38.33030261 </i>
    <i name="e_wo_entrp">    -38.33012303 </i>
    <i name="e_0_energy">    -38.33021282 </i>
   </energy>
  </scstep>
  <scstep>
   <time name="diag">   79.19   79.83</time>
   <time name="diis">  342.75  345.08</time>
   <time name="orth">    3.08    3.09</time>
   <time name="total">  457.27  460.53</time>
   <energy>
    <i name="e_fr_energy">    -37.66003757 </i>
    <i name="e_wo_entrp">    -37.65985842 </i>
    <i name="e_0_energy">    -37.65994800 </i>
   </energy>
  </scstep>
  <scstep>
   <time name="diag">   79.42   79.78</time>
   <time name="diis">  340.63  342.99</time>
   <time name="orth">    3.07    3.07</time>
   <time name="total">  455.28  458.36</time>
   <energy>
    <i name="e_fr_energy">    -36.90351165 </i>
    <i name="e_wo_entrp">    -36.90330595 </i>
    <i name="e_0_energy">    -36.90340880 </i>
   </energy>
  </scstep>
  <scstep>
   <time name="diag">   78.96   79.80</time>
   <time name="diis">  373.04  374.60</time>
   <time name="orth">    3.07    3.07</time>
   <time name="total">  487.38  489.87</time>
   <energy>
    <i name="e_fr_energy">    -36.90466033 </i>
    <i name="e_wo_entrp">    -36.90448154 </i>
    <i name="e_0_energy">    -36.90457093 </i>
   </energy>
  </scstep>
  <scstep>
   <time name="diag">   79.22   79.76</time>
   <time name="diis">  340.41  341.68</time>
   <time name="orth">    3.08    3.09</time>
   <time name="total">  455.10  457.91</time>
   <energy>
    <i name="e_fr_energy">    -36.89541552 </i>
    <i name="e_wo_entrp">    -36.89523668 </i>
    <i name="e_0_energy">    -36.89532610 </i>
   </energy>
  </scstep>
  <scstep>
   <time name="diag">   79.24   79.80</time>
   <time name="diis">  342.68  344.53</time>
   <time name="orth">    3.08    3.09</time>
   <time name="total">  457.25  459.89</time>
   <energy>
    <i name="e_fr_energy">    -36.88940839 </i>
    <i name="e_wo_entrp">    -36.88922956 </i>
    <i name="e_0_energy">    -36.88931898 </i>
   </energy>
  </scstep>
  <scstep>
   <time name="diag">   78.92   79.87</time>
   <time name="diis">  323.16  324.10</time>
   <time name="orth">    3.09    3.09</time>
   <time name="total">  437.50  439.47</time>
   <energy>
    <i name="e_fr_energy">    -36.88910678 </i>
    <i name="e_wo_entrp">    -36.88892799 </i>
    <i name="e_0_energy">    -36.88901738 </i>
   </energy>
  </scstep>
  <scstep>
   <time name="diag">   79.66   79.77</time>
   <time name="diis">  324.53  324.91</time>
   <time name="orth">    3.09    3.09</time>
   <time name="total">  439.73  440.41</time>
   <energy>
    <i name="e_fr_energy">    -36.88905310 </i>
    <i name="e_wo_entrp">    -36.88887429 </i>
    <i name="e_0_energy">    -36.88896370 </i>
   </energy>
  </scstep>
  <scstep>
   <time name="diag">   79.67   79.76</time>
   <time name="diis">  326.24  326.64</time>
   <time name="orth">    3.07    3.07</time>
   <time name="total">  441.20  442.12</time>
   <energy>
    <i name="e_fr_energy">    -36.89156379 </i>
    <i name="e_wo_entrp">    -36.89138496 </i>
    <i name="e_0_energy">    -36.89147437 </i>
   </energy>
  </scstep>
  <scstep>
   <time name="diag">   79.19   79.74</time>
   <time name="diis">  322.65  325.09</time>
   <time name="orth">    3.08    3.08</time>
   <time name="total">  437.12  440.32</time>
   <energy>
    <i name="e_fr_energy">    -36.89198476 </i>
    <i name="e_wo_entrp">    -36.89180595 </i>
    <i name="e_0_energy">    -36.89189536 </i>
   </energy>
  </scstep>
  <scstep>
   <time name="diag">   79.21   79.72</time>
   <time name="diis">  331.72  333.63</time>
   <time name="orth">    3.07    3.07</time>
   <time name="total">  446.39  448.96</time>
   <energy>
    <i name="e_fr_energy">    -36.89226343 </i>
    <i name="e_wo_entrp">    -36.89208461 </i>
    <i name="e_0_energy">    -36.89217402 </i>
   </energy>
  </scstep>
  <scstep>
   <time name="diag">   79.67   79.79</time>
   <time name="diis">  325.93  327.56</time>
   <time name="orth">    3.08    3.11</time>
   <time name="total">  440.99  443.01</time>
   <energy>
    <i name="e_fr_energy">    -36.89235347 </i>
    <i name="e_wo_entrp">    -36.89217465 </i>
    <i name="e_0_energy">    -36.89226406 </i>
   </energy>
  </scstep>
  <scstep>
   <time name="diag">   79.62   79.79</time>
   <time name="diis">  326.97  329.76</time>
   <time name="orth">    3.09    3.10</time>
   <time name="total">  441.83  445.19</time>
   <energy>
    <i name="e_fr_energy">    -36.89237213 </i>
    <i name="e_wo_entrp">    -36.89219331 </i>
    <i name="e_0_energy">    -36.89228272 </i>
   </energy>
  </scstep>
  <scstep>
   <time name="diag">   79.12   79.76</time>
   <time name="diis">  323.51  326.30</time>
   <time name="orth">    3.07    3.07</time>
   <time name="total">  437.96  441.59</time>
   <energy>
    <i name="e_fr_energy">    -36.89239235 </i>
    <i name="e_wo_entrp">    -36.89221353 </i>
    <i name="e_0_energy">    -36.89230294 </i>
   </energy>
  </scstep>
  <scstep>
   <time name="diag">   79.49   79.74</time>
   <time name="diis">  338.44  338.65</time>
   <time name="orth">    3.07    3.07</time>
   <time name="total">  453.40  455.39</time>
   <energy>
    <i name="e_fr_energy">    -36.89240968 </i>
    <i name="e_wo_entrp">    -36.89223087 </i>
    <i name="e_0_energy">    -36.89232027 </i>
   </energy>
  </scstep>
  <scstep>
   <time name="diag">   78.91   79.75</time>
   <time name="diis">  321.08  324.29</time>
   <time name="orth">    3.07    3.07</time>
   <time name="total">  435.41  439.69</time>
   <energy>
    <i name="e_fr_energy">    -36.89243006 </i>
    <i name="e_wo_entrp">    -36.89225124 </i>
    <i name="e_0_energy">    -36.89234065 </i>
   </energy>
  </scstep>
  <scstep>
   <time name="diag">   79.38   79.81</time>
   <time name="diis">  342.34  345.01</time>
   <time name="orth">    3.07    3.07</time>
   <time name="total">  457.04  460.56</time>
   <energy>
    <i name="e_fr_energy">    -36.92069667 </i>
    <i name="e_wo_entrp">    -36.92060887 </i>
    <i name="e_0_energy">    -36.92065277 </i>
   </energy>
  </scstep>
  <scstep>
   <time name="diag">   79.41   79.84</time>
   <time name="diis">  237.40  238.42</time>
   <time name="orth">    3.07    3.08</time>
   <time name="total">  352.13  353.79</time>
   <energy>
    <i name="e_fr_energy">    -36.92265751 </i>
    <i name="e_wo_entrp">    -36.92256970 </i>
    <i name="e_0_energy">    -36.92261360 </i>
   </energy>
  </scstep>
  <scstep>
   <time name="diag">   79.31   79.82</time>
   <time name="diis">  225.97  228.19</time>
   <time name="orth">    3.07    3.10</time>
   <time name="total">  340.42  343.58</time>
   <energy>
    <i name="e_fr_energy">    -36.92273166 </i>
    <i name="e_wo_entrp">    -36.92264385 </i>
    <i name="e_0_energy">    -36.92268776 </i>
   </energy>
  </scstep>
  <scstep>
   <time name="diag">   79.13   79.81</time>
   <time name="diis">  326.77  329.53</time>
   <time name="orth">    3.08    3.10</time>
   <time name="total">  441.03  444.66</time>
   <energy>
    <i name="e_fr_energy">    -36.92273202 </i>
    <i name="e_wo_entrp">    -36.92264422 </i>
    <i name="e_0_energy">    -36.92268812 </i>
   </energy>
  </scstep>
  <scstep>
   <time name="diag">   79.50   79.92</time>
   <time name="diis">  327.99  329.66</time>
   <time name="orth">    3.09    3.12</time>
   <time name="total">  442.66  445.01</time>
   <energy>
    <i name="e_fr_energy">    -36.92273141 </i>
    <i name="e_wo_entrp">    -36.92264354 </i>
    <i name="e_0_energy">    -36.92268747 </i>
   </energy>
  </scstep>
  <scstep>
   <time name="diag">   79.65   79.81</time>
   <time name="diis">  331.16  332.26</time>
   <time name="orth">    3.07    3.07</time>
   <time name="total">  446.44  447.77</time>
   <energy>
    <i name="e_fr_energy">    -36.92273048 </i>
    <i name="e_wo_entrp">    -36.92264256 </i>
    <i name="e_0_energy">    -36.92268652 </i>
   </energy>
  </scstep>
  <scstep>
   <time name="diag">   79.69   79.87</time>
   <time name="diis">  328.10  329.97</time>
   <time name="orth">    3.07    3.07</time>
   <time name="total">  442.98  445.26</time>
   <energy>
    <i name="e_fr_energy">    -36.92272933 </i>
    <i name="e_wo_entrp">    -36.92264132 </i>
    <i name="e_0_energy">    -36.92268533 </i>
   </energy>
  </scstep>
  <scstep>
   <time name="diag">   79.37   79.84</time>
   <time name="diis">  329.07  331.26</time>
   <time name="orth">    3.09    3.09</time>
   <time name="total">  444.07  446.81</time>
   <energy>
    <i name="e_fr_energy">    -36.92272767 </i>
    <i name="e_wo_entrp">    -36.92263952 </i>
    <i name="e_0_energy">    -36.92268360 </i>
   </energy>
  </scstep>
  <scstep>
   <time name="diag">   79.48   79.88</time>
   <time name="diis">  340.24  340.72</time>
   <time name="orth">    3.10    3.10</time>
   <time name="total">  455.47  456.37</time>
   <energy>
    <i name="e_fr_energy">    -36.92272752 </i>
    <i name="e_wo_entrp">    -36.92263935 </i>
    <i name="e_0_energy">    -36.92268343 </i>
   </energy>
  </scstep>
  <scstep>
   <time name="diag">   79.73   79.81</time>
   <time name="diis">  322.44  324.62</time>
   <time name="orth">    3.07    3.07</time>
   <time name="total">  437.42  441.39</time>
   <energy>
    <i name="e_fr_energy">    -36.92272750 </i>
    <i name="e_wo_entrp">    -36.92263935 </i>
    <i name="e_0_energy">    -36.92268342 </i>
   </energy>
  </scstep>
  <scstep>
   <time name="diag">   79.30   79.71</time>
   <time name="diis">  327.05  329.24</time>
   <time name="orth">    3.07    3.11</time>
   <time name="total">  441.54  447.02</time>
   <energy>
    <i name="e_fr_energy">    -36.92272592 </i>
    <i name="e_wo_entrp">    -36.92263782 </i>
    <i name="e_0_energy">    -36.92268187 </i>
   </energy>
  </scstep>
  <scstep>
   <time name="diag">   78.93   79.70</time>
   <time name="diis">  329.09  330.08</time>
   <time name="orth">    3.09    3.11</time>
   <time name="total">  443.53  445.50</time>
   <energy>
    <i name="e_fr_energy">    -36.92271087 </i>
    <i name="e_wo_entrp">    -36.92262279 </i>
    <i name="e_0_energy">    -36.92266683 </i>
   </energy>
  </scstep>
  <scstep>
   <time name="diag">   79.25   79.63</time>
   <time name="diis">  329.60  330.40</time>
   <time name="orth">    3.07    3.08</time>
   <time name="total">  444.28  447.38</time>
   <energy>
    <i name="e_fr_energy">    -36.92266268 </i>
    <i name="e_wo_entrp">    -36.92257466 </i>
    <i name="e_0_energy">    -36.92261867 </i>
   </energy>
  </scstep>
  <scstep>
   <time name="diag">   79.48   79.61</time>
   <time name="diis">  328.89  331.42</time>
   <time name="orth">    3.10    3.10</time>
   <time name="total">  444.10  447.04</time>
   <energy>
    <i name="e_fr_energy">    -36.92263413 </i>
    <i name="e_wo_entrp">    -36.92254617 </i>
    <i name="e_0_energy">    -36.92259015 </i>
   </energy>
  </scstep>
  <scstep>
   <time name="diag">   79.12   79.60</time>
   <time name="diis">  333.65  336.54</time>
   <time name="orth">    3.08    3.10</time>
   <time name="total">  448.13  452.36</time>
   <energy>
    <i name="e_fr_energy">    -36.92262031 </i>
    <i name="e_wo_entrp">    -36.92253241 </i>
    <i name="e_0_energy">    -36.92257636 </i>
   </energy>
  </scstep>
  <scstep>
   <time name="diag">   78.93   79.70</time>
   <time name="diis">  325.86  328.29</time>
   <time name="orth">    3.09    3.11</time>
   <time name="total">  440.18  443.62</time>
   <energy>
    <i name="e_fr_energy">    -36.92261505 </i>
    <i name="e_wo_entrp">    -36.92252718 </i>
    <i name="e_0_energy">    -36.92257112 </i>
   </energy>
  </scstep>
  <scstep>
   <time name="diag">   79.43   79.82</time>
   <time name="diis">  332.05  332.88</time>
   <time name="orth">    3.09    3.09</time>
   <time name="total">  447.11  448.35</time>
   <energy>
    <i name="e_fr_energy">    -36.92261504 </i>
    <i name="e_wo_entrp">    -36.92252717 </i>
    <i name="e_0_energy">    -36.92257111 </i>
   </energy>
  </scstep>
  <scstep>
   <time name="diag">   79.71   79.73</time>
   <time name="diis">  299.43  299.50</time>
   <time name="orth">    3.08    3.08</time>
   <time name="total">  414.72  414.82</time>
   <energy>
    <i name="e_fr_energy">    -36.92261550 </i>
    <i name="e_wo_entrp">    -36.92252764 </i>
    <i name="e_0_energy">    -36.92257157 </i>
   </energy>
  </scstep>
  <scstep>
   <time name="diag">   79.73   79.74</time>
   <time name="diis">  330.42  330.56</time>
   <time name="orth">    3.09    3.09</time>
   <time name="total">  445.86  446.06</time>
   <energy>
    <i name="e_fr_energy">    -36.92261749 </i>
    <i name="e_wo_entrp">    -36.92252964 </i>
    <i name="e_0_energy">    -36.92257356 </i>
   </energy>
  </scstep>
  <scstep>
   <time name="diag">   79.74   79.75</time>
   <time name="diis">  329.52  329.58</time>
   <time name="orth">    3.09    3.09</time>
   <time name="total">  444.85  444.93</time>
   <energy>
    <i name="e_fr_energy">    -36.92263432 </i>
    <i name="e_wo_entrp">    -36.92254644 </i>
    <i name="e_0_energy">    -36.92259038 </i>
   </energy>
  </scstep>
  <scstep>
   <time name="diag">   79.71   79.76</time>
   <time name="diis">  328.24  328.55</time>
   <time name="orth">    3.07    3.08</time>
   <time name="total">  443.46  443.87</time>
   <energy>
    <i name="e_fr_energy">    -36.92264919 </i>
    <i name="e_wo_entrp">    -36.92256127 </i>
    <i name="e_0_energy">    -36.92260523 </i>
   </energy>
  </scstep>
  <scstep>
   <time name="diag">   79.76   79.78</time>
   <time name="diis">  328.38  328.56</time>
   <time name="orth">    3.07    3.07</time>
   <time name="total">  443.95  444.18</time>
   <energy>
    <i name="e_fr_energy">    -36.92265873 </i>
    <i name="e_wo_entrp">    -36.92257077 </i>
    <i name="e_0_energy">    -36.92261475 </i>
   </energy>
  </scstep>
  <scstep>
   <time name="diag">   79.70   79.73</time>
   <time name="diis">  327.14  328.10</time>
   <time name="orth">    3.09    3.09</time>
   <time name="total">  442.51  443.69</time>
   <energy>
    <i name="e_fr_energy">    -36.92266612 </i>
    <i name="e_wo_entrp">    -36.92257811 </i>
    <i name="e_0_energy">    -36.92262211 </i>
   </energy>
  </scstep>
  <scstep>
   <time name="diag">   79.76   79.77</time>
   <time name="diis">  328.00  328.06</time>
   <time name="orth">    3.09    3.09</time>
   <time name="total">  443.65  443.76</time>
   <energy>
    <i name="e_fr_energy">    -36.92267345 </i>
    <i name="e_wo_entrp">    -36.92258535 </i>
    <i name="e_0_energy">    -36.92262940 </i>
   </energy>
  </scstep>
  <scstep>
   <time name="diag">   79.72   79.73</time>
   <time name="diis">  327.11  328.03</time>
   <time name="orth">    3.07    3.07</time>
   <time name="total">  442.27  443.47</time>
   <energy>
    <i name="e_fr_energy">    -36.92268056 </i>
    <i name="e_wo_entrp">    -36.92259235 </i>
    <i name="e_0_energy">    -36.92263645 </i>
   </energy>
  </scstep>
  <scstep>
   <time name="diag">   79.24   79.62</time>
   <time name="diis">  325.59  325.84</time>
   <time name="orth">    3.11    3.11</time>
   <time name="total">  440.82  441.51</time>
   <energy>
    <i name="e_fr_energy">    -36.92268732 </i>
    <i name="e_wo_entrp">    -36.92259893 </i>
    <i name="e_0_energy">    -36.92264312 </i>
   </energy>
  </scstep>
  <scstep>
   <time name="diag">   79.55   79.57</time>
   <time name="diis">  325.69  325.74</time>
   <time name="orth">    3.10    3.10</time>
   <time name="total">  441.15  441.29</time>
   <energy>
    <i name="e_fr_energy">    -36.92269339 </i>
    <i name="e_wo_entrp">    -36.92260481 </i>
    <i name="e_0_energy">    -36.92264910 </i>
   </energy>
  </scstep>
  <scstep>
   <time name="diag">   79.65   79.66</time>
   <time name="diis">  325.65  325.89</time>
   <time name="orth">    3.07    3.07</time>
   <time name="total">  440.97  441.24</time>
   <energy>
    <i name="e_fr_energy">    -36.92269813 </i>
    <i name="e_wo_entrp">    -36.92260940 </i>
    <i name="e_0_energy">    -36.92265377 </i>
   </energy>
  </scstep>
  <scstep>
   <time name="diag">   79.56   79.57</time>
   <time name="diis">  325.60  325.65</time>
   <time name="orth">    3.07    3.07</time>
   <time name="total">  441.18  441.27</time>
   <energy>
    <i name="e_fr_energy">    -36.92270067 </i>
    <i name="e_wo_entrp">    -36.92261185 </i>
    <i name="e_0_energy">    -36.92265626 </i>
   </energy>
  </scstep>
  <scstep>
   <time name="diag">   79.57   79.58</time>
   <time name="diis">  334.11  335.57</time>
   <time name="orth">    3.07    3.08</time>
   <time name="total">  449.01  453.97</time>
   <energy>
    <i name="e_fr_energy">    -36.92270154 </i>
    <i name="e_wo_entrp">    -36.92261268 </i>
    <i name="e_0_energy">    -36.92265711 </i>
   </energy>
  </scstep>
  <scstep>
   <time name="diag">   79.53   79.55</time>
   <time name="diis">  350.35  350.41</time>
   <time name="orth">    3.07    3.08</time>
   <time name="total">  465.69  465.86</time>
   <energy>
    <i name="e_fr_energy">    -36.92270174 </i>
    <i name="e_wo_entrp">    -36.92261287 </i>
    <i name="e_0_energy">    -36.92265731 </i>
   </energy>
  </scstep>
  <scstep>
   <time name="diag">   79.66   79.69</time>
   <time name="diis">  327.63  327.88</time>
   <time name="orth">    3.07    3.08</time>
   <time name="total">  443.04  443.38</time>
   <energy>
    <i name="e_fr_energy">    -36.92270176 </i>
    <i name="e_wo_entrp">    -36.92261290 </i>
    <i name="e_0_energy">    -36.92265733 </i>
   </energy>
  </scstep>
  <scstep>
   <time name="diag">   79.53   79.56</time>
   <time name="diis">  248.94  249.19</time>
   <time name="orth">    3.10    3.10</time>
   <time name="total">  364.53  364.82</time>
   <energy>
    <i name="e_fr_energy">    -36.92270181 </i>
    <i name="e_wo_entrp">    -36.92261294 </i>
    <i name="e_0_energy">    -36.92265738 </i>
   </energy>
  </scstep>
  <scstep>
   <time name="diag">   79.52   79.56</time>
   <time name="diis">  287.89  288.12</time>
   <time name="orth">    3.09    3.10</time>
   <time name="total">  403.26  403.63</time>
   <energy>
    <i name="e_fr_energy">    -36.92270181 </i>
    <i name="e_wo_entrp">    -36.92261295 </i>
    <i name="e_0_energy">    -36.92265738 </i>
   </energy>
  </scstep>
  <scstep>
   <time name="diag">   79.56   79.60</time>
   <time name="diis">  226.91  227.13</time>
   <time name="orth">    3.07    3.08</time>
   <time name="total">  342.51  342.82</time>
   <energy>
    <i name="e_fr_energy">    -36.92270181 </i>
    <i name="e_wo_entrp">    -36.92261295 </i>
    <i name="e_0_energy">    -36.92265738 </i>
   </energy>
  </scstep>
  <scstep>
   <time name="diag">   79.57   79.61</time>
   <time name="diis">  225.27  226.23</time>
   <time name="orth">    3.07    3.09</time>
   <time name="total">  340.45  341.62</time>
   <energy>
    <i name="e_fr_energy">    -36.92270181 </i>
    <i name="e_wo_entrp">    -36.92261295 </i>
    <i name="e_0_energy">    -36.92265738 </i>
   </energy>
  </scstep>
  <scstep>
   <time name="diag">   79.19   79.57</time>
   <time name="diis">  216.97  217.96</time>
   <time name="orth">    3.07    3.07</time>
   <time name="total">  331.97  333.50</time>
   <energy>
    <i name="e_fr_energy">    -36.92270181 </i>
    <i name="e_wo_entrp">    -36.92261295 </i>
    <i name="e_0_energy">    -36.92265738 </i>
   </energy>
  </scstep>
  <scstep>
   <time name="diag">   79.21   79.57</time>
   <time name="diis">  206.33  206.65</time>
   <time name="orth">    3.10    3.10</time>
   <time name="total">  291.00  291.70</time>
   <energy>
    <i name="alphaZ">      6.18334092 </i>
    <i name="ewald">   2558.32718579 </i>
    <i name="hartreedc">  -3052.34344777 </i>
    <i name="XCdc">     57.44453338 </i>
    <i name="pawpsdc">    275.36432387 </i>
    <i name="pawaedc">   -280.50537834 </i>
    <i name="eentropy">     -0.00008887 </i>
    <i name="bandstr">   -190.01669772 </i>
    <i name="atom">    588.62352690 </i>
    <i name="e_fr_energy">    -36.92270181 </i>
    <i name="e_wo_entrp">    -36.92261295 </i>
    <i name="e_0_energy">    -36.92265738 </i>
   </energy>
  </scstep>
  <structure>
   <crystal>
    <varray name="basis" >
     <v>       4.26938349       0.00000000       0.00000000 </v>
     <v>       0.00000000       2.47963638       0.00000000 </v>
     <v>       0.00000000       0.00000000      19.91569743 </v>
    </varray>
    <i name="volume">    210.83790140 </i>
    <varray name="rec_basis" >
     <v>       0.23422586       0.00000000       0.00000000 </v>
     <v>       0.00000000       0.40328494       0.00000000 </v>
     <v>       0.00000000       0.00000000       0.05021165 </v>
    </varray>
   </crystal>
   <varray name="positions" >
    <v>       0.00013158       0.00000000       0.00000000 </v>
    <v>       0.16653509       0.50000000       0.00000000 </v>
    <v>       0.50013158       0.50000000       0.00000000 </v>
    <v>       0.66653509       0.00000000       0.00000000 </v>
   </varray>
  </structure>
  <varray name="forces" >
   <v>      -0.00057566       0.00000000      -0.00000000 </v>
   <v>       0.00057566       0.00000000       0.00000000 </v>
   <v>      -0.00057566      -0.00000000      -0.00000000 </v>
   <v>       0.00057566       0.00000000       0.00000000 </v>
  </varray>
  <varray name="stress" >
   <v>      -0.00364434       0.00000000       0.00000000 </v>
   <v>       0.00000000      -8.42208047       0.00000000 </v>
   <v>       0.00000000       0.00000000      -0.01016594 </v>
  </varray>
  <energy>
   <i name="e_fr_energy">    -36.92270181 </i>
   <i name="e_wo_entrp">    -36.92265738 </i>
   <i name="e_0_energy">     -0.00008887 </i>
  </energy>
  <time name="totalsc">24021.7124131.09</time>
 </calculation>
 <calculation>
  <scstep>
   <time name="dav">  331.62  332.01</time>
   <time name="total">  364.15  364.54</time>
   <energy>
    <i name="alphaZ">      6.18334092 </i>
    <i name="ewald">   2558.32730859 </i>
    <i name="hartreedc">  -3052.34344509 </i>
    <i name="XCdc">     57.44453576 </i>
    <i name="pawpsdc">    275.36430561 </i>
    <i name="pawaedc">   -280.50535972 </i>
    <i name="eentropy">     -0.00008798 </i>
    <i name="bandstr">   -190.01682671 </i>
    <i name="atom">    588.62352690 </i>
    <i name="e_fr_energy">    -36.92270172 </i>
    <i name="e_wo_entrp">    -36.92261374 </i>
    <i name="e_0_energy">    -36.92265773 </i>
   </energy>
  </scstep>
  <scstep>
   <time name="diag">   79.57   79.83</time>
   <time name="diis">  321.71  322.30</time>
   <time name="orth">    3.09    3.09</time>
   <time name="total">  435.48  436.42</time>
   <energy>
    <i name="e_fr_energy">    -36.92270172 </i>
    <i name="e_wo_entrp">    -36.92261371 </i>
    <i name="e_0_energy">    -36.92265772 </i>
   </energy>
  </scstep>
  <scstep>
   <time name="diag">   79.63   79.76</time>
   <time name="diis">  323.77  325.21</time>
   <time name="orth">    3.07    3.07</time>
   <time name="total">  437.80  439.66</time>
   <energy>
    <i name="e_fr_energy">    -36.92270172 </i>
    <i name="e_wo_entrp">    -36.92261365 </i>
    <i name="e_0_energy">    -36.92265769 </i>
   </energy>
  </scstep>
  <scstep>
   <time name="diag">   79.24   79.74</time>
   <time name="diis">  322.33  324.59</time>
   <time name="orth">    3.07    3.09</time>
   <time name="total">  435.90  438.93</time>
   <energy>
    <i name="e_fr_energy">    -36.92270172 </i>
    <i name="e_wo_entrp">    -36.92261367 </i>
    <i name="e_0_energy">    -36.92265769 </i>
   </energy>
  </scstep>
  <scstep>
   <time name="diag">   79.52   79.77</time>
   <time name="diis">  218.97  219.26</time>
   <time name="orth">    3.09    3.09</time>
   <time name="total">  332.96  333.73</time>
   <energy>
    <i name="e_fr_energy">    -36.92270172 </i>
    <i name="e_wo_entrp">    -36.92261367 </i>
    <i name="e_0_energy">    -36.92265769 </i>
   </energy>
  </scstep>
  <scstep>
   <time name="diag">   79.26   79.74</time>
   <time name="diis">  204.46  206.17</time>
   <time name="orth">    3.08    3.09</time>
   <time name="total">  318.21  320.67</time>
   <energy>
    <i name="e_fr_energy">    -36.92270172 </i>
    <i name="e_wo_entrp">    -36.92261367 </i>
    <i name="e_0_energy">    -36.92265769 </i>
   </energy>
  </scstep>
  <scstep>
   <time name="diag">   79.32   79.71</time>
   <time name="diis">  202.63  203.86</time>
   <time name="orth">    3.08    3.10</time>
   <time name="total">  287.32  289.49</time>
   <energy>
    <i name="alphaZ">      6.18334092 </i>
    <i name="ewald">   2558.32730859 </i>
    <i name="hartreedc">  -3052.34349311 </i>
    <i name="XCdc">     57.44453788 </i>
    <i name="pawpsdc">    275.36452769 </i>
    <i name="pawaedc">   -280.50558260 </i>
    <i name="eentropy">     -0.00008805 </i>
    <i name="bandstr">   -190.01677993 </i>
    <i name="atom">    588.62352690 </i>
    <i name="e_fr_energy">    -36.92270172 </i>
    <i name="e_wo_entrp">    -36.92261367 </i>
    <i name="e_0_energy">    -36.92265769 </i>
   </energy>
  </scstep>
  <structure>
   <crystal>
    <varray name="basis" >
     <v>       4.26938349       0.00000000       0.00000000 </v>
     <v>       0.00000000       2.47963638       0.00000000 </v>
     <v>       0.00000000       0.00000000      19.91569743 </v>
    </varray>
    <i name="volume">    210.83790140 </i>
    <varray name="rec_basis" >
     <v>       0.23422586       0.00000000       0.00000000 </v>
     <v>       0.00000000       0.40328494       0.00000000 </v>
     <v>       0.00000000       0.00000000       0.05021165 </v>
    </varray>
   </crystal>
   <varray name="positions" >
    <v>       0.00012507       0.00000000      -0.00000000 </v>
    <v>       0.16654159       0.50000000       0.00000000 </v>
    <v>       0.50012507       0.50000000      -0.00000000 </v>
    <v>       0.66654159       0.00000000       0.00000000 </v>
   </varray>
  </structure>
  <varray name="forces" >
   <v>       0.00231249      -0.00000000      -0.00000000 </v>
   <v>      -0.00231249      -0.00000000       0.00000000 </v>
   <v>       0.00231249       0.00000000      -0.00000000 </v>
   <v>      -0.00231249      -0.00000000       0.00000000 </v>
  </varray>
  <varray name="stress" >
   <v>       0.00535590       0.00000000       0.00000000 </v>
   <v>       0.00000000      -8.43015871       0.00000000 </v>
   <v>       0.00000000       0.00000000      -0.01003391 </v>
  </varray>
  <energy>
   <i name="e_fr_energy">    -36.92270172 </i>
   <i name="e_wo_entrp">    -36.92265769 </i>
   <i name="e_0_energy">     -0.00008805 </i>
  </energy>
  <time name="totalsc"> 2711.28 2723.46</time>
 </calculation>
 <calculation>
  <scstep>
   <time name="dav">  317.31  318.16</time>
   <time name="total">  349.60  350.46</time>
   <energy>
    <i name="alphaZ">      6.18334092 </i>
    <i name="ewald">   2558.32721018 </i>
    <i name="hartreedc">  -3052.34345099 </i>
    <i name="XCdc">     57.44453510 </i>
    <i name="pawpsdc">    275.36452421 </i>
    <i name="pawaedc">   -280.50557914 </i>
    <i name="eentropy">     -0.00008876 </i>
    <i name="bandstr">   -190.01672025 </i>
    <i name="atom">    588.62352690 </i>
    <i name="e_fr_energy">    -36.92270182 </i>
    <i name="e_wo_entrp">    -36.92261306 </i>
    <i name="e_0_energy">    -36.92265744 </i>
   </energy>
  </scstep>
  <scstep>
   <time name="diag">   79.79   79.81</time>
   <time name="diis">  327.61  327.68</time>
   <time name="orth">    3.10    3.10</time>
   <time name="total">  443.01  443.11</time>
   <energy>
    <i name="e_fr_energy">    -36.92270183 </i>
    <i name="e_wo_entrp">    -36.92261309 </i>
    <i name="e_0_energy">    -36.92265746 </i>
   </energy>
  </scstep>
  <scstep>
   <time name="diag">   79.76   79.77</time>
   <time name="diis">  329.85  329.92</time>
   <time name="orth">    3.10    3.10</time>
   <time name="total">  445.26  445.35</time>
   <energy>
    <i name="e_fr_energy">    -36.92270182 </i>
    <i name="e_wo_entrp">    -36.92261313 </i>
    <i name="e_0_energy">    -36.92265747 </i>
   </energy>
  </scstep>
  <scstep>
   <time name="diag">   79.82   79.86</time>
   <time name="diis">  317.40  318.06</time>
   <time name="orth">    3.08    3.08</time>
   <time name="total">  432.80  433.54</time>
   <energy>
    <i name="e_fr_energy">    -36.92270182 </i>
    <i name="e_wo_entrp">    -36.92261312 </i>
    <i name="e_0_energy">    -36.92265747 </i>
   </energy>
  </scstep>
  <scstep>
   <time name="diag">   79.76   79.78</time>
   <time name="diis">  220.04  220.09</time>
   <time name="orth">    3.08    3.08</time>
   <time name="total">  335.22  335.42</time>
   <energy>
    <i name="e_fr_energy">    -36.92270182 </i>
    <i name="e_wo_entrp">    -36.92261311 </i>
    <i name="e_0_energy">    -36.92265747 </i>
   </energy>
  </scstep>
  <scstep>
   <time name="diag">   79.76   79.77</time>
   <time name="diis">  206.82  207.50</time>
   <time name="orth">    3.09    3.10</time>
   <time name="total">  321.84  322.72</time>
   <energy>
    <i name="e_fr_energy">    -36.92270182 </i>
    <i name="e_wo_entrp">    -36.92261312 </i>
    <i name="e_0_energy">    -36.92265747 </i>
   </energy>
  </scstep>
  <scstep>
   <time name="diag">   79.41   79.77</time>
   <time name="diis">  198.50  198.68</time>
   <time name="orth">    3.09    3.09</time>
   <time name="total">  313.41  314.00</time>
   <energy>
    <i name="e_fr_energy">    -36.92270182 </i>
    <i name="e_wo_entrp">    -36.92261312 </i>
    <i name="e_0_energy">    -36.92265747 </i>
   </energy>
  </scstep>
  <scstep>
   <time name="diag">   79.76   79.78</time>
   <time name="diis">  193.27  193.31</time>
   <time name="orth">    3.09    3.10</time>
   <time name="total">  278.52  278.61</time>
   <energy>
    <i name="alphaZ">      6.18334092 </i>
    <i name="ewald">   2558.32721018 </i>
    <i name="hartreedc">  -3052.34341073 </i>
    <i name="XCdc">     57.44453343 </i>
    <i name="pawpsdc">    275.36434967 </i>
    <i name="pawaedc">   -280.50540386 </i>
    <i name="eentropy">     -0.00008871 </i>
    <i name="bandstr">   -190.01675962 </i>
    <i name="atom">    588.62352690 </i>
    <i name="e_fr_energy">    -36.92270182 </i>
    <i name="e_wo_entrp">    -36.92261312 </i>
    <i name="e_0_energy">    -36.92265747 </i>
   </energy>
  </scstep>
  <structure>
   <crystal>
    <varray name="basis" >
     <v>       4.26938349       0.00000000       0.00000000 </v>
     <v>       0.00000000       2.47963638       0.00000000 </v>
     <v>       0.00000000       0.00000000      19.91569743 </v>
    </varray>
    <i name="volume">    210.83790140 </i>
    <varray name="rec_basis" >
     <v>       0.23422586       0.00000000       0.00000000 </v>
     <v>       0.00000000       0.40328494       0.00000000 </v>
     <v>       0.00000000       0.00000000       0.05021165 </v>
    </varray>
   </crystal>
   <varray name="positions" >
    <v>       0.00013028      -0.00000000      -0.00000000 </v>
    <v>       0.16653638       0.50000000       0.00000000 </v>
    <v>       0.50013028       0.50000000      -0.00000000 </v>
    <v>       0.66653638       0.00000000       0.00000000 </v>
   </varray>
  </structure>
  <varray name="forces" >
   <v>       0.00000023       0.00000000       0.00000000 </v>
   <v>      -0.00000023      -0.00000000       0.00000000 </v>
   <v>       0.00000023       0.00000000       0.00000000 </v>
   <v>      -0.00000023       0.00000000       0.00000000 </v>
  </varray>
  <varray name="stress" >
   <v>      -0.00184474       0.00000000       0.00000000 </v>
   <v>       0.00000000      -8.42372338       0.00000000 </v>
   <v>       0.00000000       0.00000000      -0.01002951 </v>
  </varray>
  <energy>
   <i name="e_fr_energy">    -36.92270182 </i>
   <i name="e_wo_entrp">    -36.92265747 </i>
   <i name="e_0_energy">     -0.00008871 </i>
  </energy>
  <time name="totalsc"> 3015.09 3018.85</time>
  <eigenvalues>
   <array>
    <dimension dim="1">band</dimension>
    <dimension dim="2">kpoint</dimension>
    <dimension dim="3">spin</dimension>
    <field>eigene</field>
    <field>occ</field>
    <set>
     <set comment="spin 1">
      <set comment="kpoint 1">
       <r>  -22.2188    1.0000 </r>
       <r>  -16.9559    1.0000 </r>
       <r>  -15.9504    1.0000 </r>
       <r>  -10.3320    1.0000 </r>
       <r>   -9.2269    1.0000 </r>
       <r>   -5.8317    1.0000 </r>
       <r>   -5.7741    1.0000 </r>
       <r>   -5.0682    1.0000 </r>
       <r>   -1.0870    0.0000 </r>
       <r>    0.5280    0.0000 </r>
       <r>    1.3286    0.0000 </r>
       <r>    1.7136    0.0000 </r>
      </set>
      <set comment="kpoint 2">
       <r>  -22.2085    1.0000 </r>
       <r>  -17.1266    1.0000 </r>
       <r>  -15.7645    1.0000 </r>
       <r>  -10.3198    1.0000 </r>
       <r>   -9.2167    1.0000 </r>
       <r>   -5.8545    1.0000 </r>
       <r>   -5.8164    1.0000 </r>
       <r>   -5.1354    1.0000 </r>
       <r>   -1.0040    0.0000 </r>
       <r>    0.5419    0.0000 </r>
       <r>    1.3427    0.0000 </r>
       <r>    1.7279    0.0000 </r>
      </set>
      <set comment="kpoint 3">
       <r>  -22.1777    1.0000 </r>
       <r>  -17.4697    1.0000 </r>
       <r>  -15.3758    1.0000 </r>
       <r>  -10.2830    1.0000 </r>
       <r>   -9.1860    1.0000 </r>
       <r>   -5.9414    1.0000 </r>
       <r>   -5.9216    1.0000 </r>
       <r>   -5.3217    1.0000 </r>
       <r>   -0.7706    0.0000 </r>
       <r>    0.5838    0.0000 </r>
       <r>    1.3850    0.0000 </r>
       <r>    1.7708    0.0000 </r>
      </set>
      <set comment="kpoint 4">
       <r>  -22.1264    1.0000 </r>
       <r>  -17.8497    1.0000 </r>
       <r>  -14.9202    1.0000 </r>
       <r>  -10.2218    1.0000 </r>
       <r>   -9.1351    1.0000 </r>
       <r>   -6.1443    1.0000 </r>
       <r>   -6.0296    1.0000 </r>
       <r>   -5.5930    1.0000 </r>
       <r>   -0.4214    0.0000 </r>
       <r>    0.6534    0.0000 </r>
       <r>    1.4555    0.0000 </r>
       <r>    1.8422    0.0000 </r>
      </set>
      <set comment="kpoint 5">
       <r>  -22.0545    1.0000 </r>
       <r>  -18.2310    1.0000 </r>
       <r>  -14.4335    1.0000 </r>
       <r>  -10.1363    1.0000 </r>
       <r>   -9.0642    1.0000 </r>
       <r>   -6.4181    1.0000 </r>
       <r>   -6.1729    1.0000 </r>
       <r>   -5.9158    1.0000 </r>
       <r>    0.0093    0.0000 </r>
       <r>    0.7510    0.0000 </r>
       <r>    1.5542    0.0000 </r>
       <r>    1.9422    0.0000 </r>
      </set>
      <set comment="kpoint 6">
       <r>  -21.9622    1.0000 </r>
       <r>  -18.6032    1.0000 </r>
       <r>  -13.9272    1.0000 </r>
       <r>  -10.0265    1.0000 </r>
       <r>   -8.9736    1.0000 </r>
       <r>   -6.7540    1.0000 </r>
       <r>   -6.3452    1.0000 </r>
       <r>   -6.2654    1.0000 </r>
       <r>    0.4955    0.0000 </r>
       <r>    0.8764    0.0000 </r>
       <r>    1.6811    0.0000 </r>
       <r>    2.0707    0.0000 </r>
      </set>
      <set comment="kpoint 7">
       <r>  -21.8496    1.0000 </r>
       <r>  -18.9617    1.0000 </r>
       <r>  -13.4062    1.0000 </r>
       <r>   -9.8927    1.0000 </r>
       <r>   -8.8639    1.0000 </r>
       <r>   -7.1428    1.0000 </r>
       <r>   -6.6255    1.0000 </r>
       <r>   -6.5398    1.0000 </r>
       <r>    1.0191    0.0000 </r>
       <r>    1.0297    0.0000 </r>
       <r>    1.8361    0.0000 </r>
       <r>    2.2278    0.0000 </r>
      </set>
      <set comment="kpoint 8">
       <r>  -21.7166    1.0000 </r>
       <r>  -19.3045    1.0000 </r>
       <r>  -12.8740    1.0000 </r>
       <r>   -9.7352    1.0000 </r>
       <r>   -8.7358    1.0000 </r>
       <r>   -7.5756    1.0000 </r>
       <r>   -6.9855    1.0000 </r>
       <r>   -6.7502    1.0000 </r>
       <r>    1.2108    0.0000 </r>
       <r>    1.5676    0.0000 </r>
       <r>    2.0190    0.0000 </r>
       <r>    2.4135    0.0000 </r>
      </set>
      <set comment="kpoint 9">
       <r>  -21.5634    1.0000 </r>
       <r>  -19.6304    1.0000 </r>
       <r>  -12.3330    1.0000 </r>
       <r>   -9.5542    1.0000 </r>
       <r>   -8.5900    1.0000 </r>
       <r>   -8.0438    1.0000 </r>
       <r>   -7.3384    1.0000 </r>
       <r>   -6.9703    1.0000 </r>
       <r>    1.4197    0.0000 </r>
       <r>    2.1310    0.0000 </r>
       <r>    2.2299    0.0000 </r>
       <r>    2.6277    0.0000 </r>
      </set>
      <set comment="kpoint 10">
       <r>  -21.3902    1.0000 </r>
       <r>  -19.9385    1.0000 </r>
       <r>  -11.7857    1.0000 </r>
       <r>   -9.3501    1.0000 </r>
       <r>   -8.5400    1.0000 </r>
       <r>   -8.4276    1.0000 </r>
       <r>   -7.6796    1.0000 </r>
       <r>   -7.1951    1.0000 </r>
       <r>    1.6564    0.0000 </r>
       <r>    2.4685    0.0000 </r>
       <r>    2.7004    0.0000 </r>
       <r>    2.8704    0.0000 </r>
      </set>
      <set comment="kpoint 11">
       <r>  -21.1970    1.0000 </r>
       <r>  -20.2283    1.0000 </r>
       <r>  -11.2348    1.0000 </r>
       <r>   -9.1234    1.0000 </r>
       <r>   -9.0575    1.0000 </r>
       <r>   -8.2497    1.0000 </r>
       <r>   -8.0058    1.0000 </r>
       <r>   -7.4197    1.0000 </r>
       <r>    1.9207    0.0000 </r>
       <r>    2.7344    0.0000 </r>
       <r>    3.1418    0.0000 </r>
       <r>    3.2515    0.0000 </r>
      </set>
      <set comment="kpoint 12">
       <r>  -20.9840    1.0000 </r>
       <r>  -20.4994    1.0000 </r>
       <r>  -10.6830    1.0000 </r>
       <r>   -9.5903    1.0000 </r>
       <r>   -8.8748    1.0000 </r>
       <r>   -8.3148    1.0000 </r>
       <r>   -8.0579    1.0000 </r>
       <r>   -7.6405    1.0000 </r>
       <r>    2.2126    0.0000 </r>
       <r>    2.8783    0.0000 </r>
       <r>    3.0265    0.0000 </r>
       <r>    3.4416    0.0000 </r>
      </set>
      <set comment="kpoint 13">
       <r>  -20.7514    1.0000 </r>
       <r>  -20.7514    1.0000 </r>
       <r>  -10.1336    1.0000 </r>
       <r>  -10.1336    1.0000 </r>
       <r>   -8.6049    1.0000 </r>
       <r>   -8.6049    1.0000 </r>
       <r>   -7.8541    1.0000 </r>
       <r>   -7.8541    1.0000 </r>
       <r>    2.5319    0.0000 </r>
       <r>    2.5319    0.0000 </r>
       <r>    3.3402    0.0000 </r>
       <r>    3.3402    0.0000 </r>
      </set>
      <set comment="kpoint 14">
       <r>  -22.2053    1.0000 </r>
       <r>  -16.9442    1.0000 </r>
       <r>  -15.9391    1.0000 </r>
       <r>  -10.3159    1.0000 </r>
       <r>   -9.2878    1.0000 </r>
       <r>   -5.8878    1.0000 </r>
       <r>   -5.8048    1.0000 </r>
       <r>   -5.0517    1.0000 </r>
       <r>   -1.0914    0.0000 </r>
       <r>    0.5464    0.0000 </r>
       <r>    1.3472    0.0000 </r>
       <r>    1.7325    0.0000 </r>
      </set>
      <set comment="kpoint 15">
       <r>  -22.1950    1.0000 </r>
       <r>  -17.1148    1.0000 </r>
       <r>  -15.7533    1.0000 </r>
       <r>  -10.3036    1.0000 </r>
       <r>   -9.2775    1.0000 </r>
       <r>   -5.9186    1.0000 </r>
       <r>   -5.8383    1.0000 </r>
       <r>   -5.1191    1.0000 </r>
       <r>   -1.0084    0.0000 </r>
       <r>    0.5603    0.0000 </r>
       <r>    1.3613    0.0000 </r>
       <r>    1.7467    0.0000 </r>
      </set>
      <set comment="kpoint 16">
       <r>  -22.1642    1.0000 </r>
       <r>  -17.4577    1.0000 </r>
       <r>  -15.3651    1.0000 </r>
       <r>  -10.2669    1.0000 </r>
       <r>   -9.2468    1.0000 </r>
       <r>   -6.0203    1.0000 </r>
       <r>   -5.9268    1.0000 </r>
       <r>   -5.3057    1.0000 </r>
       <r>   -0.7750    0.0000 </r>
       <r>    0.6021    0.0000 </r>
       <r>    1.4036    0.0000 </r>
       <r>    1.7896    0.0000 </r>
      </set>
      <set comment="kpoint 17">
       <r>  -22.1128    1.0000 </r>
       <r>  -17.8374    1.0000 </r>
       <r>  -14.9100    1.0000 </r>
       <r>  -10.2057    1.0000 </r>
       <r>   -9.1958    1.0000 </r>
       <r>   -6.2058    1.0000 </r>
       <r>   -6.0494    1.0000 </r>
       <r>   -5.5774    1.0000 </r>
       <r>   -0.4261    0.0000 </r>
       <r>    0.6718    0.0000 </r>
       <r>    1.4741    0.0000 </r>
       <r>    1.8610    0.0000 </r>
      </set>
      <set comment="kpoint 18">
       <r>  -22.0410    1.0000 </r>
       <r>  -18.2186    1.0000 </r>
       <r>  -14.4239    1.0000 </r>
       <r>  -10.1202    1.0000 </r>
       <r>   -9.1247    1.0000 </r>
       <r>   -6.4677    1.0000 </r>
       <r>   -6.2011    1.0000 </r>
       <r>   -5.9005    1.0000 </r>
       <r>    0.0040    0.0000 </r>
       <r>    0.7694    0.0000 </r>
       <r>    1.5728    0.0000 </r>
       <r>    1.9610    0.0000 </r>
      </set>
      <set comment="kpoint 19">
       <r>  -21.9487    1.0000 </r>
       <r>  -18.5905    1.0000 </r>
       <r>  -13.9182    1.0000 </r>
       <r>  -10.0105    1.0000 </r>
       <r>   -9.0339    1.0000 </r>
       <r>   -6.7941    1.0000 </r>
       <r>   -6.3794    1.0000 </r>
[...]
       <r>   -9.1645    1.0000 </r>
       <r>   -5.6099    1.0000 </r>
       <r>   -5.6099    1.0000 </r>
       <r>   -0.4532    0.0000 </r>
       <r>   -0.4532    0.0000 </r>
       <r>    4.8346    0.0000 </r>
       <r>    4.8346    0.0000 </r>
      </set>
      <set comment="kpoint 209">
       <r>  -18.8401    1.0000 </r>
       <r>  -17.0705    1.0000 </r>
       <r>  -14.0108    1.0000 </r>
       <r>  -12.3980    1.0000 </r>
       <r>  -12.3980    1.0000 </r>
       <r>  -10.8791    1.0000 </r>
       <r>   -6.4364    1.0000 </r>
       <r>   -4.5641    1.0000 </r>
       <r>   -0.9869    0.0000 </r>
       <r>    1.1575    0.0000 </r>
       <r>    5.2039    0.0000 </r>
       <r>    5.9927    0.0000 </r>
      </set>
      <set comment="kpoint 210">
       <r>  -18.8303    1.0000 </r>
       <r>  -17.0628    1.0000 </r>
       <r>  -14.0984    1.0000 </r>
       <r>  -12.4790    1.0000 </r>
       <r>  -12.3024    1.0000 </r>
       <r>  -10.8002    1.0000 </r>
       <r>   -6.4276    1.0000 </r>
       <r>   -4.5668    1.0000 </r>
       <r>   -0.9969    0.0000 </r>
       <r>    1.1318    0.0000 </r>
       <r>    5.2176    0.0000 </r>
       <r>    6.0088    0.0000 </r>
      </set>
      <set comment="kpoint 211">
       <r>  -18.8012    1.0000 </r>
       <r>  -17.0400    1.0000 </r>
       <r>  -14.3154    1.0000 </r>
       <r>  -12.6836    1.0000 </r>
       <r>  -12.0619    1.0000 </r>
       <r>  -10.6027    1.0000 </r>
       <r>   -6.4012    1.0000 </r>
       <r>   -4.5755    1.0000 </r>
       <r>   -1.0250    0.0000 </r>
       <r>    1.0567    0.0000 </r>
       <r>    5.2584    0.0000 </r>
       <r>    6.0567    0.0000 </r>
      </set>
      <set comment="kpoint 212">
       <r>  -18.7527    1.0000 </r>
       <r>  -17.0034    1.0000 </r>
       <r>  -14.5915    1.0000 </r>
       <r>  -12.9514    1.0000 </r>
       <r>  -11.7465    1.0000 </r>
       <r>  -10.3490    1.0000 </r>
       <r>   -6.3576    1.0000 </r>
       <r>   -4.5918    1.0000 </r>
       <r>   -1.0660    0.0000 </r>
       <r>    0.9375    0.0000 </r>
       <r>    5.3260    0.0000 </r>
       <r>    6.1353    0.0000 </r>
      </set>
      <set comment="kpoint 213">
       <r>  -18.6850    1.0000 </r>
       <r>  -16.9555    1.0000 </r>
       <r>  -14.8847    1.0000 </r>
       <r>  -13.2457    1.0000 </r>
       <r>  -11.3982    1.0000 </r>
       <r>  -10.0791    1.0000 </r>
       <r>   -6.2972    1.0000 </r>
       <r>   -4.6178    1.0000 </r>
       <r>   -1.1123    0.0000 </r>
       <r>    0.7819    0.0000 </r>
       <r>    5.4195    0.0000 </r>
       <r>    6.2433    0.0000 </r>
      </set>
      <set comment="kpoint 214">
       <r>  -18.5983    1.0000 </r>
       <r>  -16.9016    1.0000 </r>
       <r>  -15.1712    1.0000 </r>
       <r>  -13.5484    1.0000 </r>
       <r>  -11.0390    1.0000 </r>
       <r>   -9.8158    1.0000 </r>
       <r>   -6.2208    1.0000 </r>
       <r>   -4.6564    1.0000 </r>
       <r>   -1.1546    0.0000 </r>
       <r>    0.5987    0.0000 </r>
       <r>    5.5340    0.0000 </r>
       <r>    6.1749    0.0000 </r>
      </set>
      <set comment="kpoint 215">
       <r>  -18.4929    1.0000 </r>
       <r>  -16.8519    1.0000 </r>
       <r>  -15.4314    1.0000 </r>
       <r>  -13.8499    1.0000 </r>
       <r>  -10.6824    1.0000 </r>
       <r>   -9.5745    1.0000 </r>
       <r>   -6.1294    1.0000 </r>
       <r>   -4.7103    1.0000 </r>
       <r>   -1.1840    0.0000 </r>
       <r>    0.3968    0.0000 </r>
       <r>    5.5973    0.0000 </r>
       <r>    5.8181    0.0000 </r>
      </set>
      <set comment="kpoint 216">
       <r>  -18.3693    1.0000 </r>
       <r>  -16.8261    1.0000 </r>
       <r>  -15.6405    1.0000 </r>
       <r>  -14.1443    1.0000 </r>
       <r>  -10.3389    1.0000 </r>
       <r>   -9.3672    1.0000 </r>
       <r>   -6.0243    1.0000 </r>
       <r>   -4.7813    1.0000 </r>
       <r>   -1.1922    0.0000 </r>
       <r>    0.1848    0.0000 </r>
       <r>    5.3086    0.0000 </r>
       <r>    5.9054    0.0000 </r>
      </set>
      <set comment="kpoint 217">
       <r>  -18.2281    1.0000 </r>
       <r>  -16.8546    1.0000 </r>
       <r>  -15.7654    1.0000 </r>
       <r>  -14.4277    1.0000 </r>
       <r>  -10.0181    1.0000 </r>
       <r>   -9.2045    1.0000 </r>
       <r>   -5.9071    1.0000 </r>
       <r>   -4.8702    1.0000 </r>
       <r>   -1.1733    0.0000 </r>
       <r>   -0.0299    0.0000 </r>
       <r>    5.0141    0.0000 </r>
       <r>    5.8414    0.0000 </r>
      </set>
      <set comment="kpoint 218">
       <r>  -18.0702    1.0000 </r>
       <r>  -16.9578    1.0000 </r>
       <r>  -15.7838    1.0000 </r>
       <r>  -14.6973    1.0000 </r>
       <r>   -9.7290    1.0000 </r>
       <r>   -9.0952    1.0000 </r>
       <r>   -5.7798    1.0000 </r>
       <r>   -4.9759    1.0000 </r>
       <r>   -1.1237    0.0000 </r>
       <r>   -0.2405    0.0000 </r>
       <r>    4.7982    0.0000 </r>
       <r>    5.4435    0.0000 </r>
      </set>
      <set comment="kpoint 219">
       <r>  -17.8969    1.0000 </r>
       <r>  -17.1208    1.0000 </r>
       <r>  -15.7094    1.0000 </r>
       <r>  -14.9501    1.0000 </r>
       <r>   -9.4809    1.0000 </r>
       <r>   -9.0459    1.0000 </r>
       <r>   -5.6450    1.0000 </r>
       <r>   -5.0960    1.0000 </r>
       <r>   -1.0425    0.0000 </r>
       <r>   -0.4409    0.0000 </r>
       <r>    4.6725    0.0000 </r>
       <r>    5.1159    0.0000 </r>
      </set>
      <set comment="kpoint 220">
       <r>  -17.7102    1.0000 </r>
       <r>  -17.3132    1.0000 </r>
       <r>  -15.5720    1.0000 </r>
       <r>  -15.1833    1.0000 </r>
       <r>   -9.2822    1.0000 </r>
       <r>   -9.0607    1.0000 </r>
       <r>   -5.5056    1.0000 </r>
       <r>   -5.2271    1.0000 </r>
       <r>   -0.9305    0.0000 </r>
       <r>   -0.6259    0.0000 </r>
       <r>    4.6422    0.0000 </r>
       <r>    4.8681    0.0000 </r>
      </set>
      <set comment="kpoint 221">
       <r>  -17.5136    1.0000 </r>
       <r>  -17.5136    1.0000 </r>
       <r>  -15.3927    1.0000 </r>
       <r>  -15.3927    1.0000 </r>
       <r>   -9.1403    1.0000 </r>
       <r>   -9.1403    1.0000 </r>
       <r>   -5.3649    1.0000 </r>
       <r>   -5.3649    1.0000 </r>
       <r>   -0.7905    0.0000 </r>
       <r>   -0.7905    0.0000 </r>
       <r>    4.7083    0.0000 </r>
       <r>    4.7083    0.0000 </r>
      </set>
      <set comment="kpoint 222">
       <r>  -18.4221    1.0000 </r>
       <r>  -17.5336    1.0000 </r>
       <r>  -13.6374    1.0000 </r>
       <r>  -12.8302    1.0000 </r>
       <r>  -12.0514    1.0000 </r>
       <r>  -11.2873    1.0000 </r>
       <r>   -5.9808    1.0000 </r>
       <r>   -5.0394    1.0000 </r>
       <r>   -0.4838    0.0000 </r>
       <r>    0.5904    0.0000 </r>
       <r>    5.7977    0.0000 </r>
       <r>    6.5507    0.0000 </r>
      </set>
      <set comment="kpoint 223">
       <r>  -18.4125    1.0000 </r>
       <r>  -17.5248    1.0000 </r>
       <r>  -13.7251    1.0000 </r>
       <r>  -12.9141    1.0000 </r>
       <r>  -11.9585    1.0000 </r>
       <r>  -11.2030    1.0000 </r>
       <r>   -5.9733    1.0000 </r>
       <r>   -5.0370    1.0000 </r>
       <r>   -0.5004    0.0000 </r>
       <r>    0.5668    0.0000 </r>
       <r>    5.8112    0.0000 </r>
       <r>    6.5676    0.0000 </r>
      </set>
      <set comment="kpoint 224">
       <r>  -18.3839    1.0000 </r>
       <r>  -17.4987    1.0000 </r>
       <r>  -13.9430    1.0000 </r>
       <r>  -13.1245    1.0000 </r>
       <r>  -11.7254    1.0000 </r>
       <r>  -10.9920    1.0000 </r>
       <r>   -5.9509    1.0000 </r>
       <r>   -5.0300    1.0000 </r>
       <r>   -0.5481    0.0000 </r>
       <r>    0.4978    0.0000 </r>
       <r>    5.8518    0.0000 </r>
       <r>    6.6180    0.0000 </r>
      </set>
      <set comment="kpoint 225">
       <r>  -18.3363    1.0000 </r>
       <r>  -17.4556    1.0000 </r>
       <r>  -14.2226    1.0000 </r>
       <r>  -13.3980    1.0000 </r>
       <r>  -11.4216    1.0000 </r>
       <r>  -10.7193    1.0000 </r>
       <r>   -5.9141    1.0000 </r>
       <r>   -5.0196    1.0000 </r>
       <r>   -0.6218    0.0000 </r>
       <r>    0.3887    0.0000 </r>
       <r>    5.9190    0.0000 </r>
       <r>    6.7003    0.0000 </r>
      </set>
      <set comment="kpoint 226">
       <r>  -18.2700    1.0000 </r>
       <r>  -17.3965    1.0000 </r>
       <r>  -14.5241    1.0000 </r>
       <r>  -13.6970    1.0000 </r>
       <r>  -11.0887    1.0000 </r>
       <r>  -10.4258    1.0000 </r>
       <r>   -5.8636    1.0000 </r>
       <r>   -5.0076    1.0000 </r>
       <r>   -0.7136    0.0000 </r>
       <r>    0.2471    0.0000 </r>
       <r>    6.0107    0.0000 </r>
       <r>    6.8451    0.0000 </r>
      </set>
      <set comment="kpoint 227">
       <r>  -18.1853    1.0000 </r>
       <r>  -17.3230    1.0000 </r>
       <r>  -14.8273    1.0000 </r>
       <r>  -14.0028    1.0000 </r>
       <r>  -10.7488    1.0000 </r>
       <r>  -10.1340    1.0000 </r>
       <r>   -5.8006    1.0000 </r>
       <r>   -4.9967    1.0000 </r>
       <r>   -0.8141    0.0000 </r>
       <r>    0.0820    0.0000 </r>
       <r>    6.1101    0.0000 </r>
       <r>    6.4522    0.0000 </r>
      </set>
      <set comment="kpoint 228">
       <r>  -18.0828    1.0000 </r>
       <r>  -17.2381    1.0000 </r>
       <r>  -15.1200    1.0000 </r>
       <r>  -14.3058    1.0000 </r>
       <r>  -10.4160    1.0000 </r>
       <r>   -9.8589    1.0000 </r>
       <r>   -5.7266    1.0000 </r>
       <r>   -4.9898    1.0000 </r>
       <r>   -0.9130    0.0000 </r>
       <r>   -0.0974    0.0000 </r>
       <r>    5.9081    0.0000 </r>
       <r>    6.3267    0.0000 </r>
      </set>
      <set comment="kpoint 229">
       <r>  -17.9632    1.0000 </r>
       <r>  -17.1473    1.0000 </r>
       <r>  -15.3919    1.0000 </r>
       <r>  -14.5999    1.0000 </r>
       <r>  -10.1012    1.0000 </r>
       <r>   -9.6123    1.0000 </r>
       <r>   -5.6436    1.0000 </r>
       <r>   -4.9906    1.0000 </r>
       <r>   -1.0005    0.0000 </r>
       <r>   -0.2821    0.0000 </r>
       <r>    5.5055    0.0000 </r>
       <r>    6.0009    0.0000 </r>
      </set>
      <set comment="kpoint 230">
       <r>  -17.8278    1.0000 </r>
       <r>  -17.0612    1.0000 </r>
       <r>  -15.6292    1.0000 </r>
       <r>  -14.8808    1.0000 </r>
       <r>   -9.8144    1.0000 </r>
       <r>   -9.4047    1.0000 </r>
       <r>   -5.5541    1.0000 </r>
       <r>   -5.0023    1.0000 </r>
       <r>   -1.0673    0.0000 </r>
       <r>   -0.4637    0.0000 </r>
       <r>    5.1598    0.0000 </r>
       <r>    5.5753    0.0000 </r>
      </set>
      <set comment="kpoint 231">
       <r>  -17.6785    1.0000 </r>
       <r>  -17.0002    1.0000 </r>
       <r>  -15.8096    1.0000 </r>
       <r>  -15.1446    1.0000 </r>
       <r>   -9.5649    1.0000 </r>
       <r>   -9.2455    1.0000 </r>
       <r>   -5.4610    1.0000 </r>
       <r>   -5.0279    1.0000 </r>
       <r>   -1.1062    0.0000 </r>
       <r>   -0.6345    0.0000 </r>
       <r>    4.8915    0.0000 </r>
       <r>    5.2161    0.0000 </r>
      </set>
      <set comment="kpoint 232">
       <r>  -17.5186    1.0000 </r>
       <r>  -16.9953    1.0000 </r>
       <r>  -15.9012    1.0000 </r>
       <r>  -15.3865    1.0000 </r>
       <r>   -9.3619    1.0000 </r>
       <r>   -9.1425    1.0000 </r>
       <r>   -5.3677    1.0000 </r>
       <r>   -5.0689    1.0000 </r>
       <r>   -1.1119    0.0000 </r>
       <r>   -0.7875    0.0000 </r>
       <r>    4.7103    0.0000 </r>
       <r>    4.9335    0.0000 </r>
      </set>
      <set comment="kpoint 233">
       <r>  -17.3539    1.0000 </r>
       <r>  -17.0661    1.0000 </r>
       <r>  -15.8834    1.0000 </r>
       <r>  -15.5999    1.0000 </r>
       <r>   -9.2132    1.0000 </r>
       <r>   -9.1015    1.0000 </r>
       <r>   -5.2781    1.0000 </r>
       <r>   -5.1255    1.0000 </r>
       <r>   -1.0818    0.0000 </r>
       <r>   -0.9164    0.0000 </r>
       <r>    4.6225    0.0000 </r>
       <r>    4.7363    0.0000 </r>
      </set>
      <set comment="kpoint 234">
       <r>  -17.1960    1.0000 </r>
       <r>  -17.1960    1.0000 </r>
       <r>  -15.7727    1.0000 </r>
       <r>  -15.7727    1.0000 </r>
       <r>   -9.1252    1.0000 </r>
       <r>   -9.1252    1.0000 </r>
       <r>   -5.1962    1.0000 </r>
       <r>   -5.1962    1.0000 </r>
       <r>   -1.0158    0.0000 </r>
       <r>   -1.0158    0.0000 </r>
       <r>    4.6314    0.0000 </r>
       <r>    4.6314    0.0000 </r>
      </set>
      <set comment="kpoint 235">
       <r>  -17.9856    1.0000 </r>
       <r>  -17.9856    1.0000 </r>
       <r>  -13.2437    1.0000 </r>
       <r>  -13.2437    1.0000 </r>
       <r>  -11.6794    1.0000 </r>
       <r>  -11.6794    1.0000 </r>
       <r>   -5.5136    1.0000 </r>
       <r>   -5.5136    1.0000 </r>
       <r>    0.0426    0.0000 </r>
       <r>    0.0426    0.0000 </r>
       <r>    6.4223    0.0000 </r>
       <r>    6.4223    0.0000 </r>
      </set>
      <set comment="kpoint 236">
       <r>  -17.9764    1.0000 </r>
       <r>  -17.9764    1.0000 </r>
       <r>  -13.3299    1.0000 </r>
       <r>  -13.3299    1.0000 </r>
       <r>  -11.5904    1.0000 </r>
       <r>  -11.5904    1.0000 </r>
       <r>   -5.5080    1.0000 </r>
       <r>   -5.5080    1.0000 </r>
       <r>    0.0218    0.0000 </r>
       <r>    0.0218    0.0000 </r>
       <r>    6.4358    0.0000 </r>
       <r>    6.4358    0.0000 </r>
      </set>
      <set comment="kpoint 237">
       <r>  -17.9486    1.0000 </r>
       <r>  -17.9486    1.0000 </r>
       <r>  -13.5450    1.0000 </r>
       <r>  -13.5450    1.0000 </r>
       <r>  -11.3674    1.0000 </r>
       <r>  -11.3674    1.0000 </r>
       <r>   -5.4916    1.0000 </r>
       <r>   -5.4916    1.0000 </r>
       <r>   -0.0386    0.0000 </r>
       <r>   -0.0386    0.0000 </r>
       <r>    6.4762    0.0000 </r>
       <r>    6.4762    0.0000 </r>
      </set>
      <set comment="kpoint 238">
       <r>  -17.9026    1.0000 </r>
       <r>  -17.9026    1.0000 </r>
       <r>  -13.8228    1.0000 </r>
       <r>  -13.8228    1.0000 </r>
       <r>  -11.0780    1.0000 </r>
       <r>  -11.0780    1.0000 </r>
       <r>   -5.4651    1.0000 </r>
       <r>   -5.4651    1.0000 </r>
       <r>   -0.1334    0.0000 </r>
       <r>   -0.1334    0.0000 </r>
       <r>    6.5425    0.0000 </r>
       <r>    6.5425    0.0000 </r>
      </set>
      <set comment="kpoint 239">
       <r>  -17.8387    1.0000 </r>
       <r>  -17.8387    1.0000 </r>
       <r>  -14.1247    1.0000 </r>
       <r>  -14.1247    1.0000 </r>
       <r>  -10.7634    1.0000 </r>
       <r>  -10.7634    1.0000 </r>
       <r>   -5.4296    1.0000 </r>
       <r>   -5.4296    1.0000 </r>
       <r>   -0.2549    0.0000 </r>
       <r>   -0.2549    0.0000 </r>
       <r>    6.6303    0.0000 </r>
       <r>    6.6303    0.0000 </r>
      </set>
      <set comment="kpoint 240">
       <r>  -17.7576    1.0000 </r>
       <r>  -17.7576    1.0000 </r>
       <r>  -14.4316    1.0000 </r>
       <r>  -14.4316    1.0000 </r>
       <r>  -10.4460    1.0000 </r>
       <r>  -10.4460    1.0000 </r>
       <r>   -5.3869    1.0000 </r>
       <r>   -5.3869    1.0000 </r>
       <r>   -0.3940    0.0000 </r>
       <r>   -0.3940    0.0000 </r>
       <r>    6.6305    0.0000 </r>
       <r>    6.6306    0.0000 </r>
      </set>
      <set comment="kpoint 241">
       <r>  -17.6605    1.0000 </r>
       <r>  -17.6605    1.0000 </r>
       <r>  -14.7332    1.0000 </r>
       <r>  -14.7332    1.0000 </r>
       <r>  -10.1404    1.0000 </r>
       <r>  -10.1404    1.0000 </r>
       <r>   -5.3394    1.0000 </r>
       <r>   -5.3394    1.0000 </r>
       <r>   -0.5409    0.0000 </r>
       <r>   -0.5409    0.0000 </r>
       <r>    6.1836    0.0000 </r>
       <r>    6.1836    0.0000 </r>
      </set>
      <set comment="kpoint 242">
       <r>  -17.5491    1.0000 </r>
       <r>  -17.5491    1.0000 </r>
       <r>  -15.0226    1.0000 </r>
       <r>  -15.0226    1.0000 </r>
       <r>   -9.8580    1.0000 </r>
       <r>   -9.8580    1.0000 </r>
       <r>   -5.2900    1.0000 </r>
       <r>   -5.2900    1.0000 </r>
       <r>   -0.6859    0.0000 </r>
       <r>   -0.6859    0.0000 </r>
       <r>    5.7358    0.0000 </r>
       <r>    5.7358    0.0000 </r>
      </set>
      <set comment="kpoint 243">
       <r>  -17.4265    1.0000 </r>
       <r>  -17.4265    1.0000 </r>
       <r>  -15.2936    1.0000 </r>
       <r>  -15.2936    1.0000 </r>
       <r>   -9.6089    1.0000 </r>
       <r>   -9.6089    1.0000 </r>
       <r>   -5.2419    1.0000 </r>
       <r>   -5.2419    1.0000 </r>
       <r>   -0.8198    0.0000 </r>
       <r>   -0.8198    0.0000 </r>
       <r>    5.3473    0.0000 </r>
       <r>    5.3473    0.0000 </r>
      </set>
      <set comment="kpoint 244">
       <r>  -17.2985    1.0000 </r>
       <r>  -17.2985    1.0000 </r>
       <r>  -15.5387    1.0000 </r>
       <r>  -15.5387    1.0000 </r>
       <r>   -9.4028    1.0000 </r>
       <r>   -9.4028    1.0000 </r>
       <r>   -5.1989    1.0000 </r>
       <r>   -5.1989    1.0000 </r>
       <r>   -0.9343    0.0000 </r>
       <r>   -0.9343    0.0000 </r>
       <r>    5.0313    0.0000 </r>
       <r>    5.0313    0.0000 </r>
      </set>
      <set comment="kpoint 245">
       <r>  -17.1761    1.0000 </r>
       <r>  -17.1761    1.0000 </r>
       <r>  -15.7455    1.0000 </r>
       <r>  -15.7455    1.0000 </r>
       <r>   -9.2484    1.0000 </r>
       <r>   -9.2484    1.0000 </r>
       <r>   -5.1648    1.0000 </r>
       <r>   -5.1648    1.0000 </r>
       <r>   -1.0219    0.0000 </r>
       <r>   -1.0219    0.0000 </r>
       <r>    4.7976    0.0000 </r>
       <r>    4.7976    0.0000 </r>
      </set>
      <set comment="kpoint 246">
       <r>  -17.0803    1.0000 </r>
       <r>  -17.0803    1.0000 </r>
       <r>  -15.8922    1.0000 </r>
       <r>  -15.8922    1.0000 </r>
       <r>   -9.1526    1.0000 </r>
       <r>   -9.1526    1.0000 </r>
       <r>   -5.1428    1.0000 </r>
       <r>   -5.1428    1.0000 </r>
       <r>   -1.0770    0.0000 </r>
       <r>   -1.0770    0.0000 </r>
       <r>    4.6541    0.0000 </r>
       <r>    4.6541    0.0000 </r>
      </set>
      <set comment="kpoint 247">
       <r>  -17.0423    1.0000 </r>
       <r>  -17.0423    1.0000 </r>
       <r>  -15.9473    1.0000 </r>
       <r>  -15.9473    1.0000 </r>
       <r>   -9.1201    1.0000 </r>
       <r>   -9.1201    1.0000 </r>
       <r>   -5.1352    1.0000 </r>
       <r>   -5.1352    1.0000 </r>
       <r>   -1.0958    0.0000 </r>
       <r>   -1.0958    0.0000 </r>
       <r>    4.6056    0.0000 </r>
       <r>    4.6056    0.0000 </r>
      </set>
     </set>
    </set>
   </array>
  </eigenvalues>
  <separator name="orbital magnetization" >
   <v name="MAGDIPOLOUT">      0.00000000      0.00000000      0.00000000</v>
  </separator>
 </calculation>
 <structure name="finalpos" >
  <crystal>
   <varray name="basis" >
    <v>       4.26938349       0.00000000       0.00000000 </v>
    <v>       0.00000000       2.47963638       0.00000000 </v>
    <v>       0.00000000       0.00000000      19.91569743 </v>
   </varray>
   <i name="volume">    210.83790140 </i>
   <varray name="rec_basis" >
    <v>       0.23422586       0.00000000       0.00000000 </v>
    <v>       0.00000000       0.40328494       0.00000000 </v>
    <v>       0.00000000       0.00000000       0.05021165 </v>
   </varray>
  </crystal>
  <varray name="positions" >
   <v>       0.00013028      -0.00000000      -0.00000000 </v>
   <v>       0.16653638       0.50000000       0.00000000 </v>
   <v>       0.50013028       0.50000000      -0.00000000 </v>
   <v>       0.66653638       0.00000000       0.00000000 </v>
  </varray>
 </structure>
</modeling>
