gr                                      
           1
     4.269383    0.000000    0.000000
     0.000000    2.479636    0.000000
     0.000000    0.000000   19.915697
   C 
   4
Direct configuration=     1
   0.00013158  0.00000000  0.00000000
   0.16653509  0.50000000  0.00000000
   0.50013158  0.50000000  0.00000000
   0.66653509  0.00000000  0.00000000
Direct configuration=     2
   0.00012507  0.00000000 -0.00000000
   0.16654159  0.50000000  0.00000000
   0.50012507  0.50000000 -0.00000000
   0.66654159  0.00000000  0.00000000
Direct configuration=     3
   0.00013028 -0.00000000 -0.00000000
   0.16653638  0.50000000  0.00000000
   0.50013028  0.50000000 -0.00000000
   0.66653638  0.00000000  0.00000000
