    4    4  400    1
  0.5270948E+02  0.4262094E-09  0.2504187E-09  0.1975417E-08  0.5000000E-15
  1.000000000000000E-004
  CAR 
 gr                                      
     16    247     12
 
  0.0000000E+00  0.0000000E+00  0.0000000E+00  0.1157407E-02
    1      -22.150407
    2      -16.830264
    3      -15.906660
    4      -10.279210
    5       -9.354794
    6       -5.916059
    7       -5.754609
    8       -4.986603
    9       -1.112320
   10        0.536232
   11        1.335587
   12        1.724684
 
  0.4166667E-01  0.0000000E+00  0.0000000E+00  0.2314815E-02
    1      -22.140081
    2      -17.013022
    3      -15.708783
    4      -10.266924
    5       -9.344470
    6       -5.939324
    7       -5.795831
    8       -5.055241
    9       -1.028389
   10        0.550230
   11        1.349742
   12        1.739015
 
  0.8333333E-01  0.0000000E+00  0.0000000E+00  0.2314815E-02
    1      -22.109109
    2      -17.367790
    3      -15.308744
    4      -10.230084
    5       -9.313550
    6       -6.007799
    7       -5.917923
    8       -5.244923
    9       -0.793004
   10        0.592222
   11        1.392202
   12        1.782007
 
  0.1250000E+00  0.0000000E+00  0.0000000E+00  0.2314815E-02
    1      -22.057510
    2      -17.754377
    3      -14.847009
    4      -10.168749
    5       -9.262183
    6       -6.117753
    7       -6.116410
    8       -5.520118
    9       -0.442222
   10        0.662207
   11        1.462957
   12        1.853661
 
  0.1666667E+00  0.0000000E+00  0.0000000E+00  0.2314815E-02
    1      -21.985318
    2      -18.140041
    3      -14.356783
    4      -10.083013
    5       -9.190630
    6       -6.384555
    7       -6.263651
    8       -5.846464
    9       -0.011294
   10        0.760179
   11        1.561985
   12        1.953976
 
  0.2083333E+00  0.0000000E+00  0.0000000E+00  0.2314815E-02
    1      -21.892584
    2      -18.515281
    3      -13.848238
    4       -9.973020
    5       -9.099264
    6       -6.714217
    7       -6.438925
    8       -6.198995
    9        0.473559
   10        0.886129
   11        1.689256
   12        2.082952
 
  0.2500000E+00  0.0000000E+00  0.0000000E+00  0.2314815E-02
    1      -21.779369
    2      -18.876317
    3      -13.326037
    4       -9.838955
    5       -8.988586
    6       -7.096662
    7       -6.636691
    8       -6.561389
    9        0.994361
   10        1.040036
   11        1.844723
   12        2.240586
 
  0.2916667E+00  0.0000000E+00  0.0000000E+00  0.2314815E-02
    1      -21.645756
    2      -19.221258
    3      -12.793197
    4       -9.681064
    5       -8.859242
    6       -7.523218
    7       -6.923189
    8       -6.850295
    9        1.221870
   10        1.538560
   11        2.028318
   12        2.426875
 
  0.3333333E+00  0.0000000E+00  0.0000000E+00  0.2314815E-02
    1      -21.491839
    2      -19.548995
    3      -12.252223
    4       -9.499653
    5       -8.712043
    6       -7.985716
    7       -7.277592
    8       -7.073656
    9        1.431588
   10        2.096671
   11        2.239935
   12        2.641810
 
  0.3750000E+00  0.0000000E+00  0.0000000E+00  0.2314815E-02
    1      -21.317735
    2      -19.858790
    3      -11.705559
    4       -9.295108
    5       -8.547992
    6       -8.476722
    7       -7.620031
    8       -7.301410
    9        1.669133
   10        2.479391
   11        2.660316
   12        2.885379
 
  0.4166667E+00  0.0000000E+00  0.0000000E+00  0.2314815E-02
    1      -21.123577
    2      -20.150110
    3      -11.155795
    4       -9.067910
    5       -8.989638
    6       -8.368324
    7       -7.947344
    8       -7.528955
    9        1.934422
   10        2.746321
   11        3.157558
   12        3.217753
 
  0.4583333E+00  0.0000000E+00  0.0000000E+00  0.2314815E-02
    1      -20.909526
    2      -20.422546
    3      -10.605806
    4       -9.518685
    5       -8.818662
    6       -8.257265
    7       -8.174548
    8       -7.752400
    9        2.227340
   10        2.895197
   11        3.039771
   12        3.458305
 
  0.5000000E+00  0.0000000E+00  0.0000000E+00  0.1157407E-02
    1      -20.675774
    2      -20.675774
    3      -10.058852
    4      -10.058852
    5       -8.548124
    6       -8.548124
    7       -7.968496
    8       -7.968496
    9        2.547705
   10        2.547705
   11        3.355653
   12        3.355653
 
  0.0000000E+00  0.2777778E-01  0.0000000E+00  0.2314815E-02
    1      -22.137138
    2      -16.818839
    3      -15.895787
    4      -10.263421
    5       -9.414318
    6       -5.970852
    7       -5.786058
    8       -4.970506
    9       -1.117615
   10        0.554200
   11        1.353805
   12        1.743127
 
  0.4166667E-01  0.2777778E-01  0.0000000E+00  0.4629630E-02
    1      -22.126813
    2      -17.001461
    3      -15.698102
    4      -10.251139
    5       -9.403969
    6       -5.998038
    7       -5.822650
    8       -5.039307
    9       -1.033647
   10        0.568198
   11        1.367959
   12        1.757457
 
  0.8333333E-01  0.2777778E-01  0.0000000E+00  0.4629630E-02
    1      -22.095845
    2      -17.356003
    3      -15.298463
    4      -10.214313
    5       -9.372972
    6       -6.081301
    7       -5.927954
    8       -5.229360
    9       -0.798272
   10        0.610193
   11        1.410416
   12        1.800450
 
  0.1250000E+00  0.2777778E-01  0.0000000E+00  0.4629630E-02
    1      -22.044253
    2      -17.742377
    3      -14.837238
    4      -10.152999
    5       -9.321474
    6       -6.230349
    7       -6.084391
    8       -5.504927
    9       -0.447755
   10        0.680184
   11        1.481166
   12        1.872105
 
  0.1666667E+00  0.2777778E-01  0.0000000E+00  0.4629630E-02
    1      -21.972072
    2      -18.127854
    3      -14.347630
    4      -10.067294
    5       -9.249726
    6       -6.461606
    7       -6.263688
    8       -5.831538
    9       -0.017453
   10        0.778164
   11        1.580187
   12        1.972422
 
  0.2083333E+00  0.2777778E-01  0.0000000E+00  0.4629630E-02
    1      -21.879352
    2      -18.502931
    3      -13.839829
    4       -9.957340
    5       -9.158088
    6       -6.769915
    7       -6.456674
    8       -6.184217
    9        0.466399
   10        0.904124
   11        1.707449
   12        2.101400
 
  0.2500000E+00  0.2777778E-01  0.0000000E+00  0.4629630E-02
    1      -21.766155
    2      -18.863826
    3      -13.318524
    4       -9.823325
    5       -9.047046
    6       -7.138446
    7       -6.664849
    8       -6.546664
    9        0.985855
   10        1.058043
   11        1.862906
   12        2.259037
 
  0.2916667E+00  0.2777778E-01  0.0000000E+00  0.4629630E-02
    1      -21.632563
    2      -19.208646
    3      -12.786762
    4       -9.665490
    5       -8.917225
    6       -7.554677
    7       -6.908452
    8       -6.885589
    9        1.239890
   10        1.528408
   11        2.046491
   12        2.445330
 
  0.3333333E+00  0.2777778E-01  0.0000000E+00  0.4629630E-02
    1      -21.478672
    2      -19.536278
    3      -12.247094
    4       -9.484145
    5       -8.769406
    6       -8.009041
    7       -7.262799
    8       -7.114274
    9        1.449623
   10        2.084644
   11        2.258098
   12        2.660270
 
  0.3750000E+00  0.2777778E-01  0.0000000E+00  0.4629630E-02
    1      -21.304598
    2      -19.845984
    3      -11.702015
    4       -9.279675
    5       -8.604561
    6       -8.493496
    7       -7.605158
    8       -7.346161
    9        1.687185
   10        2.497550
   11        2.646349
   12        2.903845
 
  0.4166667E+00  0.2777778E-01  0.0000000E+00  0.4629630E-02
    1      -21.110476
    2      -20.137226
    3      -11.154177
    4       -9.052561
    5       -9.001096
    6       -8.423881
    7       -7.932377
    8       -7.576964
    9        1.952495
   10        2.764488
   11        3.176034
   12        3.202451
 
  0.4583333E+00  0.2777778E-01  0.0000000E+00  0.4629630E-02
    1      -20.896468
    2      -20.409595
    3      -10.606539
    4       -9.525819
    5       -8.803402
    6       -8.242199
    7       -8.228818
    8       -7.802993
    9        2.245441
   10        2.913431
   11        3.057972
   12        3.476805
 
  0.5000000E+00  0.2777778E-01  0.0000000E+00  0.2314815E-02
    1      -20.662765
    2      -20.662765
    3      -10.062461
    4      -10.062461
    5       -8.532959
    6       -8.532959
    7       -8.021141
    8       -8.021141
    9        2.565852
   10        2.565852
   11        3.373865
   12        3.373865
 
  0.0000000E+00  0.5555556E-01  0.0000000E+00  0.2314815E-02
    1      -22.097340
    2      -16.784569
    3      -15.863351
    4      -10.216085
    5       -9.588047
    6       -6.130938
    7       -5.879493
    8       -4.922233
    9       -1.134307
   10        0.608109
   11        1.408451
   12        1.798456
 
  0.4166667E-01  0.5555556E-01  0.0000000E+00  0.4629630E-02
    1      -22.087020
    2      -16.966799
    3      -15.666235
    4      -10.203817
    5       -9.577618
    6       -6.164999
    7       -5.907139
    8       -4.991542
    9       -1.050217
   10        0.622110
   11        1.422602
   12        1.812787
 
  0.8333333E-01  0.5555556E-01  0.0000000E+00  0.4629630E-02
    1      -22.056064
    2      -17.320672
    3      -15.267802
    4      -10.167031
    5       -9.546375
    6       -6.265592
    7       -5.989266
    8       -5.182736
    9       -0.814859
   10        0.664112
   11        1.465050
   12        1.855781
 
  0.1250000E+00  0.5555556E-01  0.0000000E+00  0.4629630E-02
    1      -22.004494
    2      -17.706407
    3      -14.808133
    4      -10.105783
    5       -9.494449
    6       -6.429318
    7       -6.122339
    8       -5.459441
    9       -0.465140
   10        0.734115
   11        1.535783
   12        1.927439
 
  0.1666667E+00  0.5555556E-01  0.0000000E+00  0.4629630E-02
    1      -21.932345
    2      -18.091319
    3      -14.320426
    4      -10.020173
    5       -9.422064
    6       -6.653229
    7       -6.298663
    8       -5.786862
    9       -0.036745
   10        0.832115
   11        1.634783
   12        2.027760
 
  0.2083333E+00  0.5555556E-01  0.0000000E+00  0.4629630E-02
    1      -21.839667
    2      -18.465905
    3      -13.814923
    4       -9.910339
    5       -9.329544
    6       -6.935164
    7       -6.507210
    8       -6.139987
    9        0.444057
   10        0.958100
   11        1.762017
   12        2.156743
 
  0.2500000E+00  0.5555556E-01  0.0000000E+00  0.4629630E-02
    1      -21.726522
    2      -18.826376
    3      -13.296395
    4       -9.776471
    5       -9.217316
    6       -7.271991
    7       -6.736639
    8       -6.502591
    9        0.959412
   10        1.112048
   11        1.917442
   12        2.314388
 
  0.2916667E+00  0.5555556E-01  0.0000000E+00  0.4629630E-02
    1      -21.592996
    2      -19.170831
    3      -12.767998
    4       -9.618812
    5       -9.085934
    6       -7.658281
    7       -6.977747
    8       -6.864335
    9        1.293930
   10        1.496948
   11        2.100993
   12        2.500690
 
  0.3333333E+00  0.5555556E-01  0.0000000E+00  0.4629630E-02
    1      -21.439183
    2      -19.498148
    3      -12.232420
    4       -9.437669
    5       -8.936088
    6       -8.086811
    7       -7.223815
    8       -7.218510
    9        1.503701
   10        2.047451
   11        2.312569
   12        2.715642
 
  0.3750000E+00  0.5555556E-01  0.0000000E+00  0.4629630E-02
    1      -21.265201
    2      -19.807581
    3      -11.692330
    4       -9.233426
    5       -8.768625
    6       -8.549826
    7       -7.560622
    8       -7.469849
    9        1.741306
   10        2.552005
   11        2.603133
   12        2.959235
 
  0.4166667E+00  0.5555556E-01  0.0000000E+00  0.4629630E-02
    1      -21.071188
    2      -20.098590
    3      -11.150606
    4       -9.039934
    5       -9.006564
    6       -8.584581
    7       -7.887553
    8       -7.711934
    9        2.006667
   10        2.818965
   11        3.154856
   12        3.231450
 
  0.4583333E+00  0.5555556E-01  0.0000000E+00  0.4629630E-02
    1      -20.857307
    2      -20.370757
    3      -10.610483
    4       -9.550486
    5       -8.757680
    6       -8.385213
    7       -8.197071
    8       -7.946877
    9        2.299681
   10        2.967978
   11        3.112557
   12        3.536255
 
  0.5000000E+00  0.5555556E-01  0.0000000E+00  0.2314815E-02
    1      -20.623754
    2      -20.623754
    3      -10.075674
    4      -10.075674
    5       -8.487529
    6       -8.487529
    7       -8.172036
    8       -8.172036
    9        2.620199
   10        2.620199
   11        3.428487
   12        3.428487
 
  0.0000000E+00  0.8333333E-01  0.0000000E+00  0.2314815E-02
    1      -22.031050
    2      -16.727467
    3      -15.809944
    4      -10.137303
    5       -9.862769
    6       -6.384702
    7       -6.032250
    8       -4.841844
    9       -1.164800
   10        0.697979
   11        1.499505
   12        1.890675
 
  0.4166667E-01  0.8333333E-01  0.0000000E+00  0.4629630E-02
    1      -22.020737
    2      -16.909096
    3      -15.613743
    4      -10.125057
    5       -9.852185
    6       -6.424544
    7       -6.050850
    8       -4.912054
    9       -1.080472
   10        0.711981
   11        1.513650
   12        1.905007
 
  0.8333333E-01  0.8333333E-01  0.0000000E+00  0.4629630E-02
    1      -21.989803
    2      -17.261884
    3      -15.217347
    4      -10.088339
    5       -9.820467
    6       -6.537522
    7       -6.111316
    8       -5.105256
    9       -0.845094
   10        0.753989
   11        1.556080
   12        1.948002
 
  0.1250000E+00  0.8333333E-01  0.0000000E+00  0.4629630E-02
    1      -21.938271
    2      -17.646555
    3      -14.760377
    4      -10.027207
    5       -9.767714
    6       -6.710884
    7       -6.220870
    8       -5.383942
    9       -0.496712
   10        0.824003
   11        1.626784
   12        2.019662
 
  0.1666667E+00  0.8333333E-01  0.0000000E+00  0.4629630E-02
    1      -21.866176
    2      -18.030519
    3      -14.276006
    4       -9.941756
    5       -9.694097
    6       -6.934029
    7       -6.381299
    8       -5.712754
    9       -0.071578
   10        0.922022
   11        1.725742
   12        2.119987
 
  0.2083333E+00  0.8333333E-01  0.0000000E+00  0.4629630E-02
    1      -21.773567
    2      -18.404279
    3      -13.774576
    4       -9.832130
    5       -9.599857
    6       -7.200531
    7       -6.587626
    8       -6.066631
    9        0.403997
   10        1.048033
   11        1.852925
   12        2.248978
 
  0.2500000E+00  0.8333333E-01  0.0000000E+00  0.4629630E-02
    1      -21.660512
    2      -18.764035
    3      -13.261019
    4       -9.698515
    5       -9.485309
    6       -7.507601
    7       -6.829575
    8       -6.429485
    9        0.912322
   10        1.202017
   11        2.008289
   12        2.406632
 
  0.2916667E+00  0.8333333E-01  0.0000000E+00  0.4629630E-02
    1      -21.527094
    2      -19.107874
    3      -12.738707
    4       -9.541156
    5       -9.350851
    6       -7.854688
    7       -7.093977
    8       -6.791137
    9        1.383940
   10        1.441260
   11        2.191772
   12        2.592946
 
  0.3333333E+00  0.8333333E-01  0.0000000E+00  0.4629630E-02
    1      -21.373411
    2      -19.434660
    3      -12.210610
    4       -9.360359
    5       -9.196965
    6       -8.241311
    7       -7.367812
    8       -7.145001
    9        1.593757
   10        1.981893
   11        2.403285
   12        2.807914
 
  0.3750000E+00  0.8333333E-01  0.0000000E+00  0.4629630E-02
    1      -21.199583
    2      -19.743636
    3      -11.679766
    4       -9.156509
    5       -9.024227
    6       -8.665117
    7       -7.640796
    8       -7.486675
    9        1.831412
   10        2.526985
   11        2.642680
   12        3.051528
 
  0.4166667E+00  0.8333333E-01  0.0000000E+00  0.4629630E-02
    1      -21.005752
    2      -20.034251
    3      -11.149528
    4       -9.121424
    5       -8.930081
    6       -8.833311
    7       -7.906213
    8       -7.813102
    9        2.096830
   10        2.909668
   11        3.069394
   12        3.323774
 
  0.4583333E+00  0.8333333E-01  0.0000000E+00  0.4629630E-02
    1      -20.792086
    2      -20.306079
    3      -10.623741
    4       -9.604132
    5       -8.681670
    6       -8.625004
    7       -8.160130
    8       -8.122092
    9        2.389916
   10        3.058510
   11        3.203458
   12        3.587832
 
  0.5000000E+00  0.8333333E-01  0.0000000E+00  0.2314815E-02
    1      -20.558784
    2      -20.558784
    3      -10.106876
    4      -10.106876
    5       -8.412024
    6       -8.412024
    7       -8.400232
    8       -8.400232
    9        2.710539
   10        2.710539
   11        3.519451
   12        3.519451
 
  0.0000000E+00  0.1111111E+00  0.0000000E+00  0.2314815E-02
    1      -21.938331
    2      -16.647552
    3      -15.736684
    4      -10.220004
    5      -10.027240
    6       -6.716217
    7       -6.240151
    8       -4.729439
    9       -1.213033
   10        0.823834
   11        1.626928
   12        2.019790
 
  0.4166667E-01  0.1111111E+00  0.0000000E+00  0.4629630E-02
    1      -21.928028
    2      -16.828459
    3      -15.541691
    4      -10.209153
    5      -10.015028
    6       -6.760568
    7       -6.250022
    8       -4.801035
    9       -1.128282
   10        0.837835
   11        1.641063
   12        2.034121
 
  0.8333333E-01  0.1111111E+00  0.0000000E+00  0.4629630E-02
    1      -21.897126
    2      -17.179798
    3      -15.148228
    4      -10.176615
    5       -9.978410
    6       -6.883148
    7       -6.288831
    8       -4.997295
    9       -0.892737
   10        0.879838
   11        1.683465
   12        2.077116
 
  0.1250000E+00  0.1111111E+00  0.0000000E+00  0.4629630E-02
    1      -21.845646
    2      -17.562984
    3      -14.695295
    4      -10.122431
    5       -9.917444
    6       -7.064694
    7       -6.371943
    8       -5.278943
    9       -0.546213
   10        0.949850
   11        1.754121
   12        2.148776
 
  0.1666667E+00  0.1111111E+00  0.0000000E+00  0.4629630E-02
    1      -21.773625
    2      -17.945604
    3      -14.216020
    4      -10.046668
    5       -9.832228
    6       -7.290022
    7       -6.507963
    8       -5.609791
    9       -0.125789
   10        1.047872
   11        1.853011
   12        2.249104
 
  0.2083333E+00  0.1111111E+00  0.0000000E+00  0.4629630E-02
    1      -21.681116
    2      -18.318187
    3      -13.720915
    4       -9.949409
    5       -9.722903
    6       -7.549498
    7       -6.697408
    8       -5.964736
    9        0.342197
   10        1.173896
   11        1.980106
   12        2.378099
 
  0.2500000E+00  0.1111111E+00  0.0000000E+00  0.4629630E-02
    1      -21.568187
    2      -18.676924
    3      -13.215201
    4       -9.830743
    5       -9.589659
    6       -7.837773
    7       -6.934475
    8       -6.327914
    9        0.840333
   10        1.327902
   11        2.135364
   12        2.535761
 
  0.2916667E+00  0.1111111E+00  0.0000000E+00  0.4629630E-02
    1      -21.434921
    2      -19.019883
    3      -12.702656
    4       -9.690751
    5       -9.432740
    6       -8.152959
    7       -7.208647
    8       -6.689387
    9        1.356825
   10        1.509857
   11        2.318728
   12        2.722087
 
  0.3333333E+00  0.1111111E+00  0.0000000E+00  0.4629630E-02
    1      -21.281422
    2      -19.345914
    3      -12.186801
    4       -9.529479
    5       -9.252452
    6       -8.495955
    7       -7.506251
    8       -7.042760
    9        1.719711
   10        1.883144
   11        2.530117
   12        2.937071
 
  0.3750000E+00  0.1111111E+00  0.0000000E+00  0.4629630E-02
    1      -21.107813
    2      -19.654238
    3      -11.671400
    4       -9.346912
    5       -9.049177
    6       -8.869158
    7       -7.812503
    8       -7.383762
    9        1.957404
   10        2.412612
   11        2.769412
   12        3.180705
 
  0.4166667E+00  0.1111111E+00  0.0000000E+00  0.4629630E-02
    1      -20.914240
    2      -19.944294
    3      -11.160750
    4       -9.274353
    5       -9.142947
    6       -8.823389
    7       -8.114160
    8       -7.709429
    9        2.222861
   10        2.939451
   11        3.036396
   12        3.452978
 
  0.4583333E+00  0.1111111E+00  0.0000000E+00  0.4629630E-02
    1      -20.700878
    2      -20.215641
    3      -10.659861
    4       -9.710730
    5       -8.917410
    6       -8.575677
    7       -8.401778
    8       -8.017628
    9        2.515990
   10        3.184744
   11        3.330488
   12        3.456641
 
  0.5000000E+00  0.1111111E+00  0.0000000E+00  0.2314815E-02
    1      -20.467931
    2      -20.467931
    3      -10.174467
    4      -10.174467
    5       -8.670204
    6       -8.670204
    7       -8.306779
    8       -8.306779
    9        2.836671
   10        2.836671
   11        3.646410
   12        3.646415
 
  0.0000000E+00  0.1388889E+00  0.0000000E+00  0.2314815E-02
    1      -21.819273
    2      -16.544855
    3      -15.645478
    4      -10.639203
    5       -9.886139
    6       -7.108423
    7       -6.497841
    8       -4.585161
    9       -1.284305
   10        0.985690
   11        1.790665
   12        2.185805
 
  0.4166667E-01  0.1388889E+00  0.0000000E+00  0.4629630E-02
    1      -21.808983
    2      -16.725066
    3      -15.451908
    4      -10.627904
    5       -9.873972
    6       -7.156544
    7       -6.499049
    8       -4.658793
    9       -1.198810
   10        0.999683
   11        1.804785
   12        2.200135
 
  0.8333333E-01  0.1388889E+00  0.0000000E+00  0.4629630E-02
    1      -21.778121
    2      -17.074670
    3      -15.062410
    4      -10.593985
    5       -9.837489
    6       -7.287393
    7       -6.515511
    8       -4.859468
    9       -0.962728
   10        1.041669
   11        1.847141
   12        2.243127
 
  0.1250000E+00  0.1388889E+00  0.0000000E+00  0.4629630E-02
    1      -21.726710
    2      -17.455950
    3      -14.615249
    4      -10.537374
    5       -9.776750
    6       -7.476725
    7       -6.569235
    8       -5.145278
    9       -0.618492
   10        1.111655
   11        1.917720
   12        2.314783
 
  0.1666667E+00  0.1388889E+00  0.0000000E+00  0.4629630E-02
    1      -21.654788
    2      -17.836808
    3      -14.143475
    4      -10.457934
    5       -9.691853
    6       -7.706055
    7       -6.674500
    8       -5.478897
    9       -0.204300
   10        1.209652
   11        2.016500
   12        2.415108
 
  0.2083333E+00  0.1388889E+00  0.0000000E+00  0.4629630E-02
    1      -21.562408
    2      -18.207837
    3      -13.657910
    4      -10.355429
    5       -9.582940
    6       -7.963669
    7       -6.836486
    8       -5.835226
    9        0.253571
   10        1.335659
   11        2.143450
   12        2.544103
 
  0.2500000E+00  0.1388889E+00  0.0000000E+00  0.4629630E-02
    1      -21.449640
    2      -18.565227
    3      -13.164320
    4      -10.229483
    5       -9.450202
    6       -8.242381
    7       -7.053546
    8       -6.198756
    9        0.738152
   10        1.489659
   11        2.298525
   12        2.701768
 
  0.2916667E+00  0.1388889E+00  0.0000000E+00  0.4629630E-02
    1      -21.316573
    2      -18.907026
    3      -12.667268
    4      -10.079509
    5       -9.293883
    6       -8.538254
    7       -7.318949
    8       -6.559901
    9        1.238161
   10        1.671618
   11        2.481669
   12        2.888102
 
  0.3333333E+00  0.1388889E+00  0.0000000E+00  0.4629630E-02
    1      -21.163313
    2      -19.232058
    3      -12.171350
    4       -9.904629
    5       -9.114291
    6       -8.850142
    7       -7.622134
    8       -6.912532
    9        1.745580
   10        1.881484
   11        2.692805
   12        3.103098
 
  0.3750000E+00  0.1388889E+00  0.0000000E+00  0.4629630E-02
    1      -20.989988
    2      -19.539525
    3      -11.681723
    4       -9.703621
    5       -9.179518
    6       -8.911806
    7       -7.949715
    8       -7.252560
    9        2.119190
   10        2.254298
   11        2.931835
   12        3.346748
 
  0.4166667E+00  0.1388889E+00  0.0000000E+00  0.4629630E-02
    1      -20.796753
    2      -19.828843
    3      -11.204318
    4       -9.530064
    5       -9.474977
    6       -8.686898
    7       -8.286593
    8       -7.577145
    9        2.384654
   10        2.759341
   11        3.198624
   12        3.619042
 
  0.4583333E+00  0.1388889E+00  0.0000000E+00  0.4629630E-02
    1      -20.583788
    2      -20.099558
    3      -10.745604
    4       -9.906374
    5       -9.217328
    6       -8.617709
    7       -8.440152
    8       -7.884231
    9        2.677780
   10        3.256421
   11        3.346514
   12        3.492955
 
  0.5000000E+00  0.1388889E+00  0.0000000E+00  0.2314815E-02
    1      -20.351306
    2      -20.351306
    3      -10.311644
    4      -10.311644
    5       -8.930563
    6       -8.930563
    7       -8.172291
    8       -8.172291
    9        2.998450
   10        2.998450
   11        3.739945
   12        3.739960
 
  0.0000000E+00  0.1666667E+00  0.0000000E+00  0.2314815E-02
    1      -21.673996
    2      -16.419416
    3      -15.539535
    4      -11.099698
    5       -9.714321
    6       -7.545372
    7       -6.799173
    8       -4.409196
    9       -1.384921
   10        1.183545
   11        1.990636
   12        2.388723
 
  0.4166667E-01  0.1666667E+00  0.0000000E+00  0.4629630E-02
    1      -21.663723
    2      -16.599200
    3      -15.347501
    4      -11.087634
    5       -9.702213
    6       -7.596906
    7       -6.791686
    8       -4.485804
    9       -1.298097
   10        1.197526
   11        2.004732
   12        2.403051
 
  0.8333333E-01  0.1666667E+00  0.0000000E+00  0.4629630E-02
    1      -21.632912
    2      -16.946904
    3      -14.963313
    4      -11.051346
    5       -9.665908
    6       -7.735434
    7       -6.785150
    8       -4.692758
    9       -1.060659
   10        1.239477
   11        2.047015
   12        2.446037
 
  0.1250000E+00  0.1666667E+00  0.0000000E+00  0.4629630E-02
    1      -21.581585
    2      -17.325847
    3      -14.524465
    4      -10.990526
    5       -9.605466
    6       -7.932531
    7       -6.807274
    8       -4.984258
    9       -0.718903
   10        1.309411
   11        2.117468
   12        2.517685
 
  0.1666667E+00  0.1666667E+00  0.0000000E+00  0.4629630E-02
    1      -21.509783
    2      -17.704485
    3      -14.063927
    4      -10.904610
    5       -9.520987
    6       -8.167069
    7       -6.877253
    8       -5.321490
    9       -0.312441
   10        1.407346
   11        2.216065
   12        2.617998
 
  0.2083333E+00  0.1666667E+00  0.0000000E+00  0.4629630E-02
    1      -21.417562
    2      -18.073541
    3      -13.593135
    4      -10.792689
    5       -9.412616
    6       -8.425916
    7       -7.004337
    8       -5.679496
    9        0.132707
   10        1.533291
   11        2.342763
   12        2.746984
 
  0.2500000E+00  0.1666667E+00  0.0000000E+00  0.4629630E-02
    1      -21.304996
    2      -18.429216
    3      -13.118943
    4      -10.653386
    5       -9.280544
    6       -8.700843
    7       -7.190499
    8       -6.043321
    9        0.600308
   10        1.687240
   11        2.497505
   12        2.904644
 
  0.2916667E+00  0.1666667E+00  0.0000000E+00  0.4629630E-02
    1      -21.172174
    2      -18.769539
    3      -12.647459
    4      -10.484720
    5       -9.125018
    6       -8.986714
    7       -7.432332
    8       -6.403877
    9        1.079840
   10        1.869161
   11        2.680211
   12        3.090977
 
  0.3333333E+00  0.1666667E+00  0.0000000E+00  0.4629630E-02
    1      -21.019211
    2      -19.093304
    3      -12.185231
    4      -10.284056
    5       -9.280706
    6       -8.946347
    7       -7.722397
    8       -6.755399
    9        1.564000
   10        2.078999
   11        2.890765
   12        3.305980
 
  0.3750000E+00  0.1666667E+00  0.0000000E+00  0.4629630E-02
    1      -20.846242
    2      -19.399686
    3      -11.739414
    4      -10.048413
    5       -9.582104
    6       -8.744910
    7       -8.050269
    8       -7.094041
    9        2.047355
   10        2.316680
   11        3.128982
   12        3.549641
 
  0.4166667E+00  0.1666667E+00  0.0000000E+00  0.4629630E-02
    1      -20.653429
    2      -19.688074
    3      -11.316932
    4       -9.892384
    5       -9.775575
    6       -8.521176
    7       -8.403290
    8       -7.417119
    9        2.525592
   10        2.582112
   11        3.394440
   12        3.821951
 
  0.4583333E+00  0.1666667E+00  0.0000000E+00  0.4629630E-02
    1      -20.440961
    2      -19.957995
    3      -10.922517
    4      -10.215319
    5       -9.466250
    6       -8.767089
    7       -8.275722
    8       -7.722680
    9        2.875186
   10        2.995019
   11        3.543724
   12        3.683027
 
  0.5000000E+00  0.1666667E+00  0.0000000E+00  0.2314815E-02
    1      -20.209062
    2      -20.209062
    3      -10.556636
    4      -10.556636
    5       -9.126306
    6       -9.126306
    7       -8.009259
    8       -8.009259
    9        3.195775
   10        3.195775
   11        3.451617
   12        3.451617
 