<?xml version="1.0" encoding="ISO-8859-1"?>
<modeling>
 <generator>
  <i name="program" type="string">vasp </i>
  <i name="version" type="string">5.3.5  </i>
  <i name="subversion" type="string">31Mar14 (build Mar 02 2015 18:14:16) complex                          parallel </i>
  <i name="platform" type="string">LinuxIFC </i>
  <i name="date" type="string">2018 08 09 </i>
  <i name="time" type="string">20:03:22 </i>
 </generator>
 <incar>
  <i type="string" name="SYSTEM">  gr</i>
  <i type="string" name="PREC">accurate : accuracy</i>
  <i type="string" name="ALGO"> FAST.</i>
  <i type="int" name="NELM">   100</i>
  <i type="int" name="NELMDL">    -3</i>
  <i type="int" name="NELMIN">     5</i>
  <i type="int" name="IBRION">     1</i>
  <i name="EDIFF">      0.00000000</i>
  <i name="EDIFFG">     -0.00000100</i>
  <i type="int" name="NSW">   400</i>
  <i type="int" name="ISIF">     2</i>
  <i name="ENCUT">   2000.00000000</i>
  <i type="int" name="ISMEAR">     0</i>
  <i name="SIGMA">      0.05000000</i>
  <i type="int" name="NWRITE">     2</i>
  <i type="logical" name="LWAVE"> F  </i>
  <i type="logical" name="LCHARG"> F  </i>
  <i type="int" name="NELM">   100</i>
 </incar>
 <kpoints>
  <generation param="Gamma">
   <v type="int" name="divisions">      24       36        1 </v>
   <v name="usershift">      0.00000000       0.00000000       0.00000000 </v>
   <v name="genvec1">      0.04166667       0.00000000       0.00000000 </v>
   <v name="genvec2">      0.00000000       0.02777778       0.00000000 </v>
   <v name="genvec3">      0.00000000       0.00000000       1.00000000 </v>
   <v name="shift">      0.00000000       0.00000000       0.00000000 </v>
  </generation>
  <varray name="kpointlist" >
   <v>       0.00000000       0.00000000       0.00000000 </v>
   <v>       0.04166667       0.00000000       0.00000000 </v>
   <v>       0.08333333       0.00000000       0.00000000 </v>
   <v>       0.12500000       0.00000000       0.00000000 </v>
   <v>       0.16666667       0.00000000       0.00000000 </v>
   <v>       0.20833333       0.00000000       0.00000000 </v>
   <v>       0.25000000       0.00000000       0.00000000 </v>
   <v>       0.29166667       0.00000000       0.00000000 </v>
   <v>       0.33333333       0.00000000       0.00000000 </v>
   <v>       0.37500000       0.00000000       0.00000000 </v>
   <v>       0.41666667       0.00000000       0.00000000 </v>
   <v>       0.45833333       0.00000000       0.00000000 </v>
   <v>       0.50000000       0.00000000       0.00000000 </v>
   <v>       0.00000000       0.02777778       0.00000000 </v>
   <v>       0.04166667       0.02777778       0.00000000 </v>
   <v>       0.08333333       0.02777778       0.00000000 </v>
   <v>       0.12500000       0.02777778       0.00000000 </v>
   <v>       0.16666667       0.02777778       0.00000000 </v>
   <v>       0.20833333       0.02777778       0.00000000 </v>
   <v>       0.25000000       0.02777778       0.00000000 </v>
   <v>       0.29166667       0.02777778       0.00000000 </v>
   <v>       0.33333333       0.02777778       0.00000000 </v>
   <v>       0.37500000       0.02777778       0.00000000 </v>
   <v>       0.41666667       0.02777778       0.00000000 </v>
   <v>       0.45833333       0.02777778       0.00000000 </v>
   <v>       0.50000000       0.02777778       0.00000000 </v>
   <v>       0.00000000       0.05555556       0.00000000 </v>
   <v>       0.04166667       0.05555556       0.00000000 </v>
   <v>       0.08333333       0.05555556       0.00000000 </v>
   <v>       0.12500000       0.05555556       0.00000000 </v>
   <v>       0.16666667       0.05555556       0.00000000 </v>
   <v>       0.20833333       0.05555556       0.00000000 </v>
   <v>       0.25000000       0.05555556       0.00000000 </v>
   <v>       0.29166667       0.05555556       0.00000000 </v>
   <v>       0.33333333       0.05555556       0.00000000 </v>
   <v>       0.37500000       0.05555556       0.00000000 </v>
   <v>       0.41666667       0.05555556       0.00000000 </v>
   <v>       0.45833333       0.05555556       0.00000000 </v>
   <v>       0.50000000       0.05555556       0.00000000 </v>
   <v>       0.00000000       0.08333333       0.00000000 </v>
   <v>       0.04166667       0.08333333       0.00000000 </v>
   <v>       0.08333333       0.08333333       0.00000000 </v>
   <v>       0.12500000       0.08333333       0.00000000 </v>
   <v>       0.16666667       0.08333333       0.00000000 </v>
   <v>       0.20833333       0.08333333       0.00000000 </v>
   <v>       0.25000000       0.08333333       0.00000000 </v>
   <v>       0.29166667       0.08333333       0.00000000 </v>
   <v>       0.33333333       0.08333333       0.00000000 </v>
   <v>       0.37500000       0.08333333       0.00000000 </v>
   <v>       0.41666667       0.08333333       0.00000000 </v>
   <v>       0.45833333       0.08333333       0.00000000 </v>
   <v>       0.50000000       0.08333333       0.00000000 </v>
   <v>       0.00000000       0.11111111       0.00000000 </v>
   <v>       0.04166667       0.11111111       0.00000000 </v>
   <v>       0.08333333       0.11111111       0.00000000 </v>
   <v>       0.12500000       0.11111111       0.00000000 </v>
   <v>       0.16666667       0.11111111       0.00000000 </v>
   <v>       0.20833333       0.11111111       0.00000000 </v>
   <v>       0.25000000       0.11111111       0.00000000 </v>
   <v>       0.29166667       0.11111111       0.00000000 </v>
   <v>       0.33333333       0.11111111       0.00000000 </v>
   <v>       0.37500000       0.11111111       0.00000000 </v>
   <v>       0.41666667       0.11111111       0.00000000 </v>
   <v>       0.45833333       0.11111111       0.00000000 </v>
   <v>       0.50000000       0.11111111       0.00000000 </v>
   <v>       0.00000000       0.13888889       0.00000000 </v>
   <v>       0.04166667       0.13888889       0.00000000 </v>
   <v>       0.08333333       0.13888889       0.00000000 </v>
   <v>       0.12500000       0.13888889       0.00000000 </v>
   <v>       0.16666667       0.13888889       0.00000000 </v>
   <v>       0.20833333       0.13888889       0.00000000 </v>
   <v>       0.25000000       0.13888889       0.00000000 </v>
   <v>       0.29166667       0.13888889       0.00000000 </v>
   <v>       0.33333333       0.13888889       0.00000000 </v>
   <v>       0.37500000       0.13888889       0.00000000 </v>
   <v>       0.41666667       0.13888889       0.00000000 </v>
   <v>       0.45833333       0.13888889       0.00000000 </v>
   <v>       0.50000000       0.13888889       0.00000000 </v>
   <v>       0.00000000       0.16666667       0.00000000 </v>
   <v>       0.04166667       0.16666667       0.00000000 </v>
   <v>       0.08333333       0.16666667       0.00000000 </v>
   <v>       0.12500000       0.16666667       0.00000000 </v>
   <v>       0.16666667       0.16666667       0.00000000 </v>
   <v>       0.20833333       0.16666667       0.00000000 </v>
   <v>       0.25000000       0.16666667       0.00000000 </v>
   <v>       0.29166667       0.16666667       0.00000000 </v>
   <v>       0.33333333       0.16666667       0.00000000 </v>
   <v>       0.37500000       0.16666667       0.00000000 </v>
   <v>       0.41666667       0.16666667       0.00000000 </v>
   <v>       0.45833333       0.16666667       0.00000000 </v>
   <v>       0.50000000       0.16666667       0.00000000 </v>
   <v>       0.00000000       0.19444444       0.00000000 </v>
   <v>       0.04166667       0.19444444       0.00000000 </v>
   <v>       0.08333333       0.19444444       0.00000000 </v>
   <v>       0.12500000       0.19444444       0.00000000 </v>
   <v>       0.16666667       0.19444444       0.00000000 </v>
   <v>       0.20833333       0.19444444       0.00000000 </v>
   <v>       0.25000000       0.19444444       0.00000000 </v>
   <v>       0.29166667       0.19444444       0.00000000 </v>
   <v>       0.33333333       0.19444444       0.00000000 </v>
   <v>       0.37500000       0.19444444       0.00000000 </v>
   <v>       0.41666667       0.19444444       0.00000000 </v>
   <v>       0.45833333       0.19444444       0.00000000 </v>
   <v>       0.50000000       0.19444444       0.00000000 </v>
   <v>       0.00000000       0.22222222       0.00000000 </v>
   <v>       0.04166667       0.22222222       0.00000000 </v>
   <v>       0.08333333       0.22222222       0.00000000 </v>
   <v>       0.12500000       0.22222222       0.00000000 </v>
   <v>       0.16666667       0.22222222       0.00000000 </v>
   <v>       0.20833333       0.22222222       0.00000000 </v>
   <v>       0.25000000       0.22222222       0.00000000 </v>
   <v>       0.29166667       0.22222222       0.00000000 </v>
   <v>       0.33333333       0.22222222       0.00000000 </v>
   <v>       0.37500000       0.22222222       0.00000000 </v>
   <v>       0.41666667       0.22222222       0.00000000 </v>
   <v>       0.45833333       0.22222222       0.00000000 </v>
   <v>       0.50000000       0.22222222       0.00000000 </v>
   <v>       0.00000000       0.25000000       0.00000000 </v>
   <v>       0.04166667       0.25000000       0.00000000 </v>
   <v>       0.08333333       0.25000000       0.00000000 </v>
   <v>       0.12500000       0.25000000       0.00000000 </v>
   <v>       0.16666667       0.25000000       0.00000000 </v>
   <v>       0.20833333       0.25000000       0.00000000 </v>
   <v>       0.25000000       0.25000000       0.00000000 </v>
   <v>       0.29166667       0.25000000       0.00000000 </v>
   <v>       0.33333333       0.25000000       0.00000000 </v>
   <v>       0.37500000       0.25000000       0.00000000 </v>
   <v>       0.41666667       0.25000000       0.00000000 </v>
   <v>       0.45833333       0.25000000       0.00000000 </v>
   <v>       0.50000000       0.25000000       0.00000000 </v>
   <v>       0.00000000       0.27777778       0.00000000 </v>
   <v>       0.04166667       0.27777778       0.00000000 </v>
   <v>       0.08333333       0.27777778       0.00000000 </v>
   <v>       0.12500000       0.27777778       0.00000000 </v>
   <v>       0.16666667       0.27777778       0.00000000 </v>
   <v>       0.20833333       0.27777778       0.00000000 </v>
   <v>       0.25000000       0.27777778       0.00000000 </v>
   <v>       0.29166667       0.27777778       0.00000000 </v>
   <v>       0.33333333       0.27777778       0.00000000 </v>
   <v>       0.37500000       0.27777778       0.00000000 </v>
   <v>       0.41666667       0.27777778       0.00000000 </v>
   <v>       0.45833333       0.27777778       0.00000000 </v>
   <v>       0.50000000       0.27777778       0.00000000 </v>
   <v>       0.00000000       0.30555556       0.00000000 </v>
   <v>       0.04166667       0.30555556       0.00000000 </v>
   <v>       0.08333333       0.30555556       0.00000000 </v>
   <v>       0.12500000       0.30555556       0.00000000 </v>
   <v>       0.16666667       0.30555556       0.00000000 </v>
   <v>       0.20833333       0.30555556       0.00000000 </v>
   <v>       0.25000000       0.30555556       0.00000000 </v>
   <v>       0.29166667       0.30555556       0.00000000 </v>
   <v>       0.33333333       0.30555556       0.00000000 </v>
   <v>       0.37500000       0.30555556       0.00000000 </v>
   <v>       0.41666667       0.30555556       0.00000000 </v>
   <v>       0.45833333       0.30555556       0.00000000 </v>
   <v>       0.50000000       0.30555556       0.00000000 </v>
   <v>       0.00000000       0.33333333       0.00000000 </v>
   <v>       0.04166667       0.33333333       0.00000000 </v>
   <v>       0.08333333       0.33333333       0.00000000 </v>
   <v>       0.12500000       0.33333333       0.00000000 </v>
   <v>       0.16666667       0.33333333       0.00000000 </v>
   <v>       0.20833333       0.33333333       0.00000000 </v>
   <v>       0.25000000       0.33333333       0.00000000 </v>
   <v>       0.29166667       0.33333333       0.00000000 </v>
   <v>       0.33333333       0.33333333       0.00000000 </v>
   <v>       0.37500000       0.33333333       0.00000000 </v>
   <v>       0.41666667       0.33333333       0.00000000 </v>
   <v>       0.45833333       0.33333333       0.00000000 </v>
   <v>       0.50000000       0.33333333       0.00000000 </v>
   <v>       0.00000000       0.36111111       0.00000000 </v>
   <v>       0.04166667       0.36111111       0.00000000 </v>
   <v>       0.08333333       0.36111111       0.00000000 </v>
   <v>       0.12500000       0.36111111       0.00000000 </v>
   <v>       0.16666667       0.36111111       0.00000000 </v>
   <v>       0.20833333       0.36111111       0.00000000 </v>
   <v>       0.25000000       0.36111111       0.00000000 </v>
   <v>       0.29166667       0.36111111       0.00000000 </v>
   <v>       0.33333333       0.36111111       0.00000000 </v>
   <v>       0.37500000       0.36111111       0.00000000 </v>
   <v>       0.41666667       0.36111111       0.00000000 </v>
   <v>       0.45833333       0.36111111       0.00000000 </v>
   <v>       0.50000000       0.36111111       0.00000000 </v>
   <v>       0.00000000       0.38888889       0.00000000 </v>
   <v>       0.04166667       0.38888889       0.00000000 </v>
   <v>       0.08333333       0.38888889       0.00000000 </v>
   <v>       0.12500000       0.38888889       0.00000000 </v>
   <v>       0.16666667       0.38888889       0.00000000 </v>
   <v>       0.20833333       0.38888889       0.00000000 </v>
   <v>       0.25000000       0.38888889       0.00000000 </v>
   <v>       0.29166667       0.38888889       0.00000000 </v>
   <v>       0.33333333       0.38888889       0.00000000 </v>
   <v>       0.37500000       0.38888889       0.00000000 </v>
   <v>       0.41666667       0.38888889       0.00000000 </v>
   <v>       0.45833333       0.38888889       0.00000000 </v>
   <v>       0.50000000       0.38888889       0.00000000 </v>
   <v>       0.00000000       0.41666667       0.00000000 </v>
   <v>       0.04166667       0.41666667       0.00000000 </v>
   <v>       0.08333333       0.41666667       0.00000000 </v>
   <v>       0.12500000       0.41666667       0.00000000 </v>
   <v>       0.16666667       0.41666667       0.00000000 </v>
   <v>       0.20833333       0.41666667       0.00000000 </v>
   <v>       0.25000000       0.41666667       0.00000000 </v>
   <v>       0.29166667       0.41666667       0.00000000 </v>
   <v>       0.33333333       0.41666667       0.00000000 </v>
   <v>       0.37500000       0.41666667       0.00000000 </v>
   <v>       0.41666667       0.41666667       0.00000000 </v>
   <v>       0.45833333       0.41666667       0.00000000 </v>
   <v>       0.50000000       0.41666667       0.00000000 </v>
   <v>       0.00000000       0.44444444       0.00000000 </v>
   <v>       0.04166667       0.44444444       0.00000000 </v>
   <v>       0.08333333       0.44444444       0.00000000 </v>
   <v>       0.12500000       0.44444444       0.00000000 </v>
   <v>       0.16666667       0.44444444       0.00000000 </v>
   <v>       0.20833333       0.44444444       0.00000000 </v>
   <v>       0.25000000       0.44444444       0.00000000 </v>
   <v>       0.29166667       0.44444444       0.00000000 </v>
   <v>       0.33333333       0.44444444       0.00000000 </v>
   <v>       0.37500000       0.44444444       0.00000000 </v>
   <v>       0.41666667       0.44444444       0.00000000 </v>
   <v>       0.45833333       0.44444444       0.00000000 </v>
   <v>       0.50000000       0.44444444       0.00000000 </v>
   <v>       0.00000000       0.47222222       0.00000000 </v>
   <v>       0.04166667       0.47222222       0.00000000 </v>
   <v>       0.08333333       0.47222222       0.00000000 </v>
   <v>       0.12500000       0.47222222       0.00000000 </v>
   <v>       0.16666667       0.47222222       0.00000000 </v>
   <v>       0.20833333       0.47222222       0.00000000 </v>
   <v>       0.25000000       0.47222222       0.00000000 </v>
   <v>       0.29166667       0.47222222       0.00000000 </v>
   <v>       0.33333333       0.47222222       0.00000000 </v>
   <v>       0.37500000       0.47222222       0.00000000 </v>
   <v>       0.41666667       0.47222222       0.00000000 </v>
   <v>       0.45833333       0.47222222       0.00000000 </v>
   <v>       0.50000000       0.47222222       0.00000000 </v>
   <v>       0.00000000       0.50000000       0.00000000 </v>
   <v>       0.04166667       0.50000000       0.00000000 </v>
   <v>       0.08333333       0.50000000       0.00000000 </v>
   <v>       0.12500000       0.50000000       0.00000000 </v>
   <v>       0.16666667       0.50000000       0.00000000 </v>
   <v>       0.20833333       0.50000000       0.00000000 </v>
   <v>       0.25000000       0.50000000       0.00000000 </v>
   <v>       0.29166667       0.50000000       0.00000000 </v>
   <v>       0.33333333       0.50000000       0.00000000 </v>
   <v>       0.37500000       0.50000000       0.00000000 </v>
   <v>       0.41666667       0.50000000       0.00000000 </v>
   <v>       0.45833333       0.50000000       0.00000000 </v>
   <v>       0.50000000       0.50000000       0.00000000 </v>
  </varray>
  <varray name="weights" >
   <v>       0.00115741 </v>
   <v>       0.00231481 </v>
   <v>       0.00231481 </v>
   <v>       0.00231481 </v>
   <v>       0.00231481 </v>
   <v>       0.00231481 </v>
   <v>       0.00231481 </v>
   <v>       0.00231481 </v>
   <v>       0.00231481 </v>
   <v>       0.00231481 </v>
   <v>       0.00231481 </v>
   <v>       0.00231481 </v>
   <v>       0.00115741 </v>
   <v>       0.00231481 </v>
   <v>       0.00462963 </v>
   <v>       0.00462963 </v>
   <v>       0.00462963 </v>
   <v>       0.00462963 </v>
   <v>       0.00462963 </v>
   <v>       0.00462963 </v>
   <v>       0.00462963 </v>
   <v>       0.00462963 </v>
   <v>       0.00462963 </v>
   <v>       0.00462963 </v>
   <v>       0.00462963 </v>
   <v>       0.00231481 </v>
   <v>       0.00231481 </v>
   <v>       0.00462963 </v>
   <v>       0.00462963 </v>
   <v>       0.00462963 </v>
   <v>       0.00462963 </v>
   <v>       0.00462963 </v>
   <v>       0.00462963 </v>
   <v>       0.00462963 </v>
   <v>       0.00462963 </v>
   <v>       0.00462963 </v>
   <v>       0.00462963 </v>
   <v>       0.00462963 </v>
   <v>       0.00231481 </v>
   <v>       0.00231481 </v>
   <v>       0.00462963 </v>
   <v>       0.00462963 </v>
   <v>       0.00462963 </v>
   <v>       0.00462963 </v>
   <v>       0.00462963 </v>
   <v>       0.00462963 </v>
   <v>       0.00462963 </v>
   <v>       0.00462963 </v>
   <v>       0.00462963 </v>
   <v>       0.00462963 </v>
   <v>       0.00462963 </v>
   <v>       0.00231481 </v>
   <v>       0.00231481 </v>
   <v>       0.00462963 </v>
   <v>       0.00462963 </v>
   <v>       0.00462963 </v>
   <v>       0.00462963 </v>
   <v>       0.00462963 </v>
   <v>       0.00462963 </v>
   <v>       0.00462963 </v>
   <v>       0.00462963 </v>
   <v>       0.00462963 </v>
   <v>       0.00462963 </v>
   <v>       0.00462963 </v>
   <v>       0.00231481 </v>
   <v>       0.00231481 </v>
   <v>       0.00462963 </v>
   <v>       0.00462963 </v>
   <v>       0.00462963 </v>
   <v>       0.00462963 </v>
   <v>       0.00462963 </v>
   <v>       0.00462963 </v>
   <v>       0.00462963 </v>
   <v>       0.00462963 </v>
   <v>       0.00462963 </v>
   <v>       0.00462963 </v>
   <v>       0.00462963 </v>
   <v>       0.00231481 </v>
   <v>       0.00231481 </v>
   <v>       0.00462963 </v>
   <v>       0.00462963 </v>
   <v>       0.00462963 </v>
   <v>       0.00462963 </v>
   <v>       0.00462963 </v>
   <v>       0.00462963 </v>
   <v>       0.00462963 </v>
   <v>       0.00462963 </v>
   <v>       0.00462963 </v>
   <v>       0.00462963 </v>
   <v>       0.00462963 </v>
   <v>       0.00231481 </v>
   <v>       0.00231481 </v>
   <v>       0.00462963 </v>
   <v>       0.00462963 </v>
   <v>       0.00462963 </v>
   <v>       0.00462963 </v>
   <v>       0.00462963 </v>
   <v>       0.00462963 </v>
   <v>       0.00462963 </v>
   <v>       0.00462963 </v>
   <v>       0.00462963 </v>
   <v>       0.00462963 </v>
   <v>       0.00462963 </v>
   <v>       0.00231481 </v>
   <v>       0.00231481 </v>
   <v>       0.00462963 </v>
   <v>       0.00462963 </v>
   <v>       0.00462963 </v>
   <v>       0.00462963 </v>
   <v>       0.00462963 </v>
   <v>       0.00462963 </v>
   <v>       0.00462963 </v>
   <v>       0.00462963 </v>
   <v>       0.00462963 </v>
   <v>       0.00462963 </v>
   <v>       0.00462963 </v>
   <v>       0.00231481 </v>
   <v>       0.00231481 </v>
   <v>       0.00462963 </v>
   <v>       0.00462963 </v>
   <v>       0.00462963 </v>
   <v>       0.00462963 </v>
   <v>       0.00462963 </v>
   <v>       0.00462963 </v>
   <v>       0.00462963 </v>
   <v>       0.00462963 </v>
   <v>       0.00462963 </v>
   <v>       0.00462963 </v>
   <v>       0.00462963 </v>
   <v>       0.00231481 </v>
   <v>       0.00231481 </v>
   <v>       0.00462963 </v>
   <v>       0.00462963 </v>
   <v>       0.00462963 </v>
   <v>       0.00462963 </v>
   <v>       0.00462963 </v>
   <v>       0.00462963 </v>
   <v>       0.00462963 </v>
   <v>       0.00462963 </v>
   <v>       0.00462963 </v>
   <v>       0.00462963 </v>
   <v>       0.00462963 </v>
   <v>       0.00231481 </v>
   <v>       0.00231481 </v>
   <v>       0.00462963 </v>
   <v>       0.00462963 </v>
   <v>       0.00462963 </v>
   <v>       0.00462963 </v>
   <v>       0.00462963 </v>
   <v>       0.00462963 </v>
   <v>       0.00462963 </v>
   <v>       0.00462963 </v>
   <v>       0.00462963 </v>
   <v>       0.00462963 </v>
   <v>       0.00462963 </v>
   <v>       0.00231481 </v>
   <v>       0.00231481 </v>
   <v>       0.00462963 </v>
   <v>       0.00462963 </v>
   <v>       0.00462963 </v>
   <v>       0.00462963 </v>
   <v>       0.00462963 </v>
   <v>       0.00462963 </v>
   <v>       0.00462963 </v>
   <v>       0.00462963 </v>
   <v>       0.00462963 </v>
   <v>       0.00462963 </v>
   <v>       0.00462963 </v>
   <v>       0.00231481 </v>
   <v>       0.00231481 </v>
   <v>       0.00462963 </v>
   <v>       0.00462963 </v>
   <v>       0.00462963 </v>
   <v>       0.00462963 </v>
   <v>       0.00462963 </v>
   <v>       0.00462963 </v>
   <v>       0.00462963 </v>
   <v>       0.00462963 </v>
   <v>       0.00462963 </v>
   <v>       0.00462963 </v>
   <v>       0.00462963 </v>
   <v>       0.00231481 </v>
   <v>       0.00231481 </v>
   <v>       0.00462963 </v>
   <v>       0.00462963 </v>
   <v>       0.00462963 </v>
   <v>       0.00462963 </v>
   <v>       0.00462963 </v>
   <v>       0.00462963 </v>
   <v>       0.00462963 </v>
   <v>       0.00462963 </v>
   <v>       0.00462963 </v>
   <v>       0.00462963 </v>
   <v>       0.00462963 </v>
   <v>       0.00231481 </v>
   <v>       0.00231481 </v>
   <v>       0.00462963 </v>
   <v>       0.00462963 </v>
   <v>       0.00462963 </v>
   <v>       0.00462963 </v>
   <v>       0.00462963 </v>
   <v>       0.00462963 </v>
   <v>       0.00462963 </v>
   <v>       0.00462963 </v>
   <v>       0.00462963 </v>
   <v>       0.00462963 </v>
   <v>       0.00462963 </v>
   <v>       0.00231481 </v>
   <v>       0.00231481 </v>
   <v>       0.00462963 </v>
   <v>       0.00462963 </v>
   <v>       0.00462963 </v>
   <v>       0.00462963 </v>
   <v>       0.00462963 </v>
   <v>       0.00462963 </v>
   <v>       0.00462963 </v>
   <v>       0.00462963 </v>
   <v>       0.00462963 </v>
   <v>       0.00462963 </v>
   <v>       0.00462963 </v>
   <v>       0.00231481 </v>
   <v>       0.00231481 </v>
   <v>       0.00462963 </v>
   <v>       0.00462963 </v>
   <v>       0.00462963 </v>
   <v>       0.00462963 </v>
   <v>       0.00462963 </v>
   <v>       0.00462963 </v>
   <v>       0.00462963 </v>
   <v>       0.00462963 </v>
   <v>       0.00462963 </v>
   <v>       0.00462963 </v>
   <v>       0.00462963 </v>
   <v>       0.00231481 </v>
   <v>       0.00115741 </v>
   <v>       0.00231481 </v>
   <v>       0.00231481 </v>
   <v>       0.00231481 </v>
   <v>       0.00231481 </v>
   <v>       0.00231481 </v>
   <v>       0.00231481 </v>
   <v>       0.00231481 </v>
   <v>       0.00231481 </v>
   <v>       0.00231481 </v>
   <v>       0.00231481 </v>
   <v>       0.00231481 </v>
   <v>       0.00115741 </v>
  </varray>
 </kpoints>
 <parameters>
  <separator name="general" >
   <i type="string" name="SYSTEM">gr</i>
   <i type="logical" name="LCOMPAT"> F  </i>
  </separator>
  <separator name="electronic" >
   <i type="string" name="PREC">accura</i>
   <i name="ENMAX">   2000.00000000</i>
   <i name="ENAUG">    644.87300000</i>
   <i name="EDIFF">      0.00000000</i>
   <i type="int" name="IALGO">    68</i>
   <i type="int" name="IWAVPR">    11</i>
   <i type="int" name="NBANDS">    12</i>
   <i name="NELECT">     16.00000000</i>
   <i type="int" name="TURBO">     0</i>
   <i type="int" name="IRESTART">     0</i>
   <i type="int" name="NREBOOT">     0</i>
   <i type="int" name="NMIN">     0</i>
   <i name="EREF">      0.00000000</i>
   <separator name="electronic smearing" >
    <i type="int" name="ISMEAR">     0</i>
    <i name="SIGMA">      0.05000000</i>
    <i name="KSPACING">      0.50000000</i>
    <i type="logical" name="KGAMMA"> T  </i>
   </separator>
   <separator name="electronic projectors" >
    <i type="logical" name="LREAL"> F  </i>
    <v name="ROPT">      0.00000000</v>
    <i type="int" name="LMAXPAW">  -100</i>
    <i type="int" name="LMAXMIX">     2</i>
    <i type="logical" name="NLSPLINE"> F  </i>
   </separator>
   <separator name="electronic startup" >
    <i type="int" name="ISTART">     0</i>
    <i type="int" name="ICHARG">     2</i>
    <i type="int" name="INIWAV">     1</i>
   </separator>
   <separator name="electronic spin" >
    <i type="int" name="ISPIN">     1</i>
    <i type="logical" name="LNONCOLLINEAR"> F  </i>
    <v name="MAGMOM">      1.00000000      1.00000000      1.00000000      1.00000000</v>
    <i name="NUPDOWN">     -1.00000000</i>
    <i type="logical" name="LSORBIT"> F  </i>
    <v name="SAXIS">      0.00000000      0.00000000      1.00000000</v>
    <i type="logical" name="LSPIRAL"> F  </i>
    <v name="QSPIRAL">      0.00000000      0.00000000      0.00000000</v>
    <i type="logical" name="LZEROZ"> F  </i>
   </separator>
   <separator name="electronic exchange-correlation" >
    <i type="logical" name="LASPH"> F  </i>
    <i type="logical" name="LMETAGGA"> F  </i>
   </separator>
   <separator name="electronic convergence" >
    <i type="int" name="NELM">   100</i>
    <i type="int" name="NELMDL">    -3</i>
    <i type="int" name="NELMIN">     5</i>
    <i name="ENINI">   2000.00000000</i>
    <separator name="electronic convergence detail" >
     <i type="logical" name="LDIAG"> T  </i>
     <i type="logical" name="LSUBROT"> F  </i>
     <i name="WEIMIN">      0.00100000</i>
     <i name="EBREAK">      0.00000000</i>
     <i name="DEPER">      0.30000000</i>
     <i type="int" name="NRMM">     4</i>
     <i name="TIME">      0.40000000</i>
    </separator>
   </separator>
   <separator name="electronic mixer" >
    <i name="AMIX">      0.40000000</i>
    <i name="BMIX">      1.00000000</i>
    <i name="AMIN">      0.10000000</i>
    <i name="AMIX_MAG">      1.60000000</i>
    <i name="BMIX_MAG">      1.00000000</i>
    <separator name="electronic mixer details" >
     <i type="int" name="IMIX">     4</i>
     <i type="int" name="MAXMIX">   -45</i>
     <i name="WC">    100.00000000</i>
     <i type="int" name="INIMIX">     1</i>
     <i type="int" name="MIXPRE">     1</i>
     <i type="int" name="MREMOVE">     5</i>
    </separator>
   </separator>
   <separator name="electronic dipolcorrection" >
    <i type="logical" name="LDIPOL"> F  </i>
    <i type="logical" name="LMONO"> F  </i>
    <i type="int" name="IDIPOL">     0</i>
    <i name="EPSILON">      1.00000000</i>
    <v name="DIPOL">   -100.00000000   -100.00000000   -100.00000000</v>
    <i name="EFIELD">      0.00000000</i>
   </separator>
  </separator>
  <separator name="grids" >
   <i type="int" name="NGX">    64</i>
   <i type="int" name="NGY">    40</i>
   <i type="int" name="NGZ">   288</i>
   <i type="int" name="NGXF">   128</i>
   <i type="int" name="NGYF">    80</i>
   <i type="int" name="NGZF">   576</i>
   <i type="logical" name="ADDGRID"> F  </i>
  </separator>
  <separator name="ionic" >
   <i type="int" name="NSW">   400</i>
   <i type="int" name="IBRION">     1</i>
   <i type="int" name="ISIF">     2</i>
   <i name="PSTRESS">      0.00000000</i>
   <i name="EDIFFG">     -0.00000100</i>
   <i type="int" name="NFREE">     0</i>
   <i name="POTIM">      0.50000000</i>
   <i name="SMASS">     -3.00000000</i>
   <i name="SCALEE">      1.00000000</i>
  </separator>
  <separator name="ionic md" >
   <i name="TEBEG">      0.00010000</i>
   <i name="TEEND">      0.00010000</i>
   <i type="int" name="NBLOCK">     1</i>
   <i type="int" name="KBLOCK">   400</i>
   <i type="int" name="NPACO">   256</i>
   <i name="APACO">     16.00000000</i>
  </separator>
  <separator name="symmetry" >
   <i type="int" name="ISYM">     2</i>
   <i name="SYMPREC">      0.00001000</i>
  </separator>
  <separator name="dos" >
   <i type="logical" name="LORBIT"> F  </i>
   <v name="RWIGS">     -1.00000000</v>
   <i type="int" name="NEDOS">   301</i>
   <i name="EMIN">     10.00000000</i>
   <i name="EMAX">    -10.00000000</i>
   <i name="EFERMI">      0.00000000</i>
  </separator>
  <separator name="writing" >
   <i type="int" name="NWRITE">     2</i>
   <i type="logical" name="LWAVE"> F  </i>
   <i type="logical" name="LCHARG"> F  </i>
   <i type="logical" name="LPARD"> F  </i>
   <i type="logical" name="LVTOT"> F  </i>
   <i type="logical" name="LVHAR"> F  </i>
   <i type="logical" name="LELF"> F  </i>
   <i type="logical" name="LOPTICS"> F  </i>
   <v name="STM">      0.00000000      0.00000000      0.00000000      0.00000000      0.00000000      0.00000000      0.00000000</v>
  </separator>
  <separator name="performance" >
   <i type="int" name="NPAR">     4</i>
   <i type="int" name="NSIM">     4</i>
   <i type="int" name="NBLK">    -1</i>
   <i type="logical" name="LPLANE"> T  </i>
   <i type="logical" name="LSCALAPACK"> F  </i>
   <i type="logical" name="LSCAAWARE"> F  </i>
   <i type="logical" name="LSCALU"> F  </i>
   <i type="logical" name="LASYNC"> F  </i>
   <i type="logical" name="LORBITALREAL"> F  </i>
  </separator>
  <separator name="miscellaneous" >
   <i type="int" name="IDIOT">     3</i>
   <i type="logical" name="LMUSIC"> F  </i>
   <v name="POMASS">     12.01100000</v>
   <v name="DARWINR">      0.00000000</v>
   <v name="DARWINV">      1.00000000</v>
   <i type="logical" name="LCORR"> T  </i>
  </separator>
  <i type="logical" name="GGA_COMPAT"> T  </i>
  <i type="logical" name="LBERRY"> F  </i>
  <i type="int" name="ICORELEVEL">     0</i>
  <i type="logical" name="LDAU"> F  </i>
  <i type="int" name="I_CONSTRAINED_M">     0</i>
  <separator name="electronic exchange-correlation" >
   <i type="string" name="GGA">--</i>
   <i type="int" name="VOSKOWN">     0</i>
   <i type="logical" name="LHFCALC"> F  </i>
   <i type="string" name="PRECFOCK"></i>
   <i type="logical" name="LSYMGRAD"> F  </i>
   <i type="logical" name="LHFONE"> F  </i>
   <i type="logical" name="LRHFCALC"> F  </i>
   <i type="logical" name="LTHOMAS"> F  </i>
   <i type="logical" name="LMODELHF"> F  </i>
   <i name="ENCUT4O">     -1.00000000</i>
   <i type="int" name="EXXOEP">     0</i>
   <i type="int" name="FOURORBIT">     0</i>
   <i name="AEXX">      0.00000000</i>
   <i name="HFALPHA">      0.00000000</i>
   <i name="MCALPHA">      0.00000000</i>
   <i name="ALDAX">      1.00000000</i>
   <i name="AGGAX">      1.00000000</i>
   <i name="ALDAC">      1.00000000</i>
   <i name="AGGAC">      1.00000000</i>
   <i type="int" name="NKREDX">     1</i>
   <i type="int" name="NKREDY">     1</i>
   <i type="int" name="NKREDZ">     1</i>
   <i type="logical" name="SHIFTRED"> F  </i>
   <i type="logical" name="ODDONLY"> F  </i>
   <i type="logical" name="EVENONLY"> F  </i>
   <i type="int" name="LMAXFOCK">     0</i>
   <i type="int" name="NMAXFOCKAE">     0</i>
   <i type="logical" name="LFOCKAEDFT"> F  </i>
   <i name="HFSCREEN">      0.00000000</i>
   <i name="HFSCREENC">      0.00000000</i>
   <i type="int" name="NBANDSGWLOW">     0</i>
  </separator>
  <separator name="vdW DFT" >
   <i type="logical" name="LUSE_VDW"> F  </i>
   <i name="Zab_VDW">     -0.84910000</i>
   <i name="PARAM1">      0.12340000</i>
   <i name="PARAM2">      1.00000000</i>
   <i name="PARAM3">      0.00000000</i>
  </separator>
  <separator name="model GW" >
   <i type="int" name="MODEL_GW">     0</i>
   <i name="MODEL_EPS0">     31.62568521</i>
   <i name="MODEL_ALPHA">      1.00000000</i>
  </separator>
  <separator name="linear response parameters" >
   <i type="logical" name="LEPSILON"> F  </i>
   <i type="logical" name="LRPA"> F  </i>
   <i type="logical" name="LNABLA"> F  </i>
   <i type="logical" name="LVEL"> F  </i>
   <i type="int" name="KINTER">     0</i>
   <i name="CSHIFT">      0.10000000</i>
   <i name="OMEGAMAX">     -1.00000000</i>
   <i name="DEG_THRESHOLD">      0.00200000</i>
  </separator>
  <separator name="orbital magnetization" >
   <i type="logical" name="NUCIND"> F  </i>
   <v name="MAGPOS">      0.00000000      0.00000000      0.00000000</v>
   <i type="logical" name="LNICSALL"> T  </i>
   <i type="logical" name="ORBITALMAG"> F  </i>
   <i type="logical" name="LMAGBLOCH"> F  </i>
   <i type="logical" name="LCHIMAG"> F  </i>
   <i type="logical" name="LGAUGE"> T  </i>
   <i type="int" name="MAGATOM">     0</i>
   <v name="MAGDIPOL">      0.00000000      0.00000000      0.00000000</v>
   <v name="AVECCONST">      0.00000000      0.00000000      0.00000000</v>
  </separator>
  <separator name="response functions" >
   <i type="logical" name="LADDER"> F  </i>
   <i type="logical" name="LFXC"> F  </i>
   <i type="logical" name="LHARTREE"> T  </i>
   <i type="int" name="IBSE">     0</i>
   <i type="logical" name="LTCTE"> F  </i>
   <i type="logical" name="LTETE"> F  </i>
   <i type="logical" name="LTRIPLET"> F  </i>
   <i type="logical" name="LFXCEPS"> F  </i>
   <i type="logical" name="LFXHEG"> F  </i>
   <i type="logical" name="L2ORDER"> F  </i>
   <i type="logical" name="LUSEW"> F  </i>
   <i name="ENCUTGW">     -2.00000000</i>
   <i name="ENCUTGWSOFT">     -2.00000000</i>
   <i name="ENCUTLF">     -1.00000000</i>
   <i type="int" name="LMAXMP2">    -1</i>
   <i name="SCISSOR">      0.00000000</i>
   <i type="int" name="NOMEGA">     0</i>
   <i type="int" name="NOMEGAR">     0</i>
   <i type="int" name="NBANDSGW">    -1</i>
   <i type="int" name="NBANDSO">    -1</i>
   <i type="int" name="NBANDSV">    -1</i>
   <i type="int" name="NELM">   100</i>
   <i type="int" name="DIM">     3</i>
   <i type="int" name="ANTIRES">     0</i>
   <i name="OMEGAMAX">    -30.00000000</i>
   <i name="OMEGAMIN">    -30.00000000</i>
   <i name="OMEGATL">   -200.00000000</i>
   <i type="int" name="OMEGAGRID">     0</i>
   <i name="CSHIFT">     -0.10000000</i>
   <i type="logical" name="SELFENERGY"> F  </i>
   <i type="logical" name="LSPECTRAL"> F  </i>
   <i type="logical" name="ODDONLYGW"> F  </i>
   <i type="logical" name="EVENONLYGW"> F  </i>
   <i type="int" name="NKREDLFX">     1</i>
   <i type="int" name="NKREDLFY">     1</i>
   <i type="int" name="NKREDLFZ">     1</i>
   <i type="int" name="MAXMEM">  1800</i>
   <i type="int" name="TELESCOPE">     0</i>
   <i type="int" name="TAUPAR">     1</i>
  </separator>
  <separator name="External order field" >
   <i name="OFIELD_KAPPA">      0.00000000</i>
   <v name="OFIELD_K">      0.00000000      0.00000000      0.00000000</v>
   <i name="OFIELD_Q6_NEAR">      0.00000000</i>
   <i name="OFIELD_Q6_FAR">      0.00000000</i>
   <i name="OFIELD_A">      0.00000000</i>
  </separator>
 </parameters>
 <atominfo>
  <atoms>       4 </atoms>
  <types>       1 </types>
  <array name="atoms" >
   <dimension dim="1">ion</dimension>
   <field type="string">element</field>
   <field type="int">atomtype</field>
   <set>
    <rc><c>C </c><c>   1</c></rc>
    <rc><c>C </c><c>   1</c></rc>
    <rc><c>C </c><c>   1</c></rc>
    <rc><c>C </c><c>   1</c></rc>
   </set>
  </array>
  <array name="atomtypes" >
   <dimension dim="1">type</dimension>
   <field type="int">atomspertype</field>
   <field type="string">element</field>
   <field>mass</field>
   <field>valence</field>
   <field type="string">pseudopotential</field>
   <set>
    <rc><c>   4</c><c>C </c><c>     12.01100000</c><c>      4.00000000</c><c> PAW_PBE C 08Apr2002                    </c></rc>
   </set>
  </array>
 </atominfo>
 <structure name="initialpos" >
  <crystal>
   <varray name="basis" >
    <v>       4.26209388       0.00000000       0.00000000 </v>
    <v>       0.00000000       2.50418723       0.00000000 </v>
    <v>       0.00000000       0.00000000      19.75417404 </v>
   </varray>
   <i name="volume">    210.83790140 </i>
   <varray name="rec_basis" >
    <v>       0.23462646       0.00000000       0.00000000 </v>
    <v>       0.00000000       0.39933116       0.00000000 </v>
    <v>       0.00000000       0.00000000       0.05062221 </v>
   </varray>
  </crystal>
  <varray name="positions" >
   <v>       0.00039382       0.00000000       0.00000000 </v>
   <v>       0.16627284       0.50000000       0.00000000 </v>
   <v>       0.50039382       0.50000000       0.00000000 </v>
   <v>       0.66627284       0.00000000       0.00000000 </v>
  </varray>
 </structure>
 <calculation>
  <scstep>
   <time name="dav">  319.73  321.46</time>
   <time name="total">  322.53  324.39</time>
   <energy>
    <i name="alphaZ">      6.18334092 </i>
    <i name="ewald">   2504.02367779 </i>
    <i name="hartreedc">  -2931.88353008 </i>
    <i name="XCdc">     54.92953187 </i>
    <i name="pawpsdc">    151.32577238 </i>
    <i name="pawaedc">   -155.92769107 </i>
    <i name="eentropy">     -0.00172221 </i>
    <i name="bandstr">    -27.94008836 </i>
    <i name="atom">    588.62352690 </i>
    <i name="e_fr_energy">    189.33281815 </i>
    <i name="e_wo_entrp">    189.33454036 </i>
    <i name="e_0_energy">    189.33367926 </i>
   </energy>
  </scstep>
  <scstep>
   <time name="dav">  485.82  487.93</time>
   <time name="total">  485.83  487.94</time>
   <energy>
    <i name="e_fr_energy">     -9.17906844 </i>
    <i name="e_wo_entrp">     -9.17892441 </i>
    <i name="e_0_energy">     -9.17899642 </i>
   </energy>
  </scstep>
  <scstep>
   <time name="dav">  373.84  374.19</time>
   <time name="total">  407.19  407.57</time>
   <energy>
    <i name="e_fr_energy">    -38.24304607 </i>
    <i name="e_wo_entrp">    -38.24304430 </i>
    <i name="e_0_energy">    -38.24304518 </i>
   </energy>
  </scstep>
  <scstep>
   <time name="diag">   87.14   87.17</time>
   <time name="diis">  367.05  368.53</time>
   <time name="orth">    3.07    3.07</time>
   <time name="total">  492.97  494.65</time>
   <energy>
    <i name="e_fr_energy">    -37.63969401 </i>
    <i name="e_wo_entrp">    -37.63969016 </i>
    <i name="e_0_energy">    -37.63969209 </i>
   </energy>
  </scstep>
  <scstep>
   <time name="diag">   86.94   87.13</time>
   <time name="diis">  362.44  364.15</time>
   <time name="orth">    3.07    3.08</time>
   <time name="total">  488.13  490.33</time>
   <energy>
    <i name="e_fr_energy">    -36.91049556 </i>
    <i name="e_wo_entrp">    -36.91049008 </i>
    <i name="e_0_energy">    -36.91049282 </i>
   </energy>
  </scstep>
  <scstep>
   <time name="diag">   86.59   87.13</time>
   <time name="diis">  398.62  401.29</time>
   <time name="orth">    3.08    3.09</time>
   <time name="total">  524.16  527.67</time>
   <energy>
    <i name="e_fr_energy">    -36.91264458 </i>
    <i name="e_wo_entrp">    -36.91263938 </i>
    <i name="e_0_energy">    -36.91264198 </i>
   </energy>
  </scstep>
  <scstep>
   <time name="diag">   86.59   87.11</time>
   <time name="diis">  363.75  365.68</time>
   <time name="orth">    3.07    3.08</time>
   <time name="total">  489.48  492.05</time>
   <energy>
    <i name="e_fr_energy">    -36.90352433 </i>
    <i name="e_wo_entrp">    -36.90351985 </i>
    <i name="e_0_energy">    -36.90352209 </i>
   </energy>
  </scstep>
  <scstep>
   <time name="diag">   86.95   87.11</time>
   <time name="diis">  364.27  366.16</time>
   <time name="orth">    3.07    3.09</time>
   <time name="total">  490.17  492.62</time>
   <energy>
    <i name="e_fr_energy">    -36.89822730 </i>
    <i name="e_wo_entrp">    -36.89822263 </i>
    <i name="e_0_energy">    -36.89822497 </i>
   </energy>
  </scstep>
  <scstep>
   <time name="diag">   86.51   87.09</time>
   <time name="diis">  350.15  352.04</time>
   <time name="orth">    3.08    3.08</time>
   <time name="total">  475.52  478.19</time>
   <energy>
    <i name="e_fr_energy">    -36.89800029 </i>
    <i name="e_wo_entrp">    -36.89799525 </i>
    <i name="e_0_energy">    -36.89799777 </i>
   </energy>
  </scstep>
  <scstep>
   <time name="diag">   86.36   87.07</time>
   <time name="diis">  350.00  353.02</time>
   <time name="orth">    3.08    3.08</time>
   <time name="total">  475.12  479.19</time>
   <energy>
    <i name="e_fr_energy">    -36.89786456 </i>
    <i name="e_wo_entrp">    -36.89785974 </i>
    <i name="e_0_energy">    -36.89786215 </i>
   </energy>
  </scstep>
  <scstep>
   <time name="diag">   86.64   87.03</time>
   <time name="diis">  353.94  354.90</time>
   <time name="orth">    3.09    3.09</time>
   <time name="total">  479.36  480.86</time>
   <energy>
    <i name="e_fr_energy">    -36.90028114 </i>
    <i name="e_wo_entrp">    -36.90027642 </i>
    <i name="e_0_energy">    -36.90027878 </i>
   </energy>
  </scstep>
  <scstep>
   <time name="diag">   86.86   87.09</time>
   <time name="diis">  352.71  354.17</time>
   <time name="orth">    3.10    3.10</time>
   <time name="total">  478.54  480.40</time>
   <energy>
    <i name="e_fr_energy">    -36.90074645 </i>
    <i name="e_wo_entrp">    -36.90074164 </i>
    <i name="e_0_energy">    -36.90074404 </i>
   </energy>
  </scstep>
  <scstep>
   <time name="diag">   86.92   87.04</time>
   <time name="diis">  359.03  359.98</time>
   <time name="orth">    3.07    3.09</time>
   <time name="total">  484.81  486.21</time>
   <energy>
    <i name="e_fr_energy">    -36.90101087 </i>
    <i name="e_wo_entrp">    -36.90100605 </i>
    <i name="e_0_energy">    -36.90100846 </i>
   </energy>
  </scstep>
  <scstep>
   <time name="diag">   86.31   87.06</time>
   <time name="diis">  351.91  356.03</time>
   <time name="orth">    3.07    3.07</time>
   <time name="total">  477.16  482.48</time>
   <energy>
    <i name="e_fr_energy">    -36.90109277 </i>
    <i name="e_wo_entrp">    -36.90108797 </i>
    <i name="e_0_energy">    -36.90109037 </i>
   </energy>
  </scstep>
  <scstep>
   <time name="diag">   86.41   87.08</time>
   <time name="diis">  353.97  356.92</time>
   <time name="orth">    3.09    3.10</time>
   <time name="total">  479.10  483.10</time>
   <energy>
    <i name="e_fr_energy">    -36.90110336 </i>
    <i name="e_wo_entrp">    -36.90109855 </i>
    <i name="e_0_energy">    -36.90110095 </i>
   </energy>
  </scstep>
  <scstep>
   <time name="diag">   86.54   87.03</time>
   <time name="diis">  349.70  352.95</time>
   <time name="orth">    3.09    3.10</time>
   <time name="total">  475.00  479.16</time>
   <energy>
    <i name="e_fr_energy">    -36.90111548 </i>
    <i name="e_wo_entrp">    -36.90111067 </i>
    <i name="e_0_energy">    -36.90111307 </i>
   </energy>
  </scstep>
  <scstep>
   <time name="diag">   86.73   87.03</time>
   <time name="diis">  363.91  365.26</time>
   <time name="orth">    3.10    3.10</time>
   <time name="total">  489.73  491.51</time>
   <energy>
    <i name="e_fr_energy">    -36.90112102 </i>
    <i name="e_wo_entrp">    -36.90111621 </i>
    <i name="e_0_energy">    -36.90111862 </i>
   </energy>
  </scstep>
  <scstep>
   <time name="diag">   86.31   87.05</time>
   <time name="diis">  347.73  351.83</time>
   <time name="orth">    3.07    3.09</time>
   <time name="total">  473.01  478.25</time>
   <energy>
    <i name="e_fr_energy">    -36.90112210 </i>
    <i name="e_wo_entrp">    -36.90111729 </i>
    <i name="e_0_energy">    -36.90111970 </i>
   </energy>
  </scstep>
  <scstep>
   <time name="diag">   86.13   87.03</time>
   <time name="diis">  356.72  359.36</time>
   <time name="orth">    3.08    3.11</time>
   <time name="total">  481.70  486.20</time>
   <energy>
    <i name="e_fr_energy">    -36.90112290 </i>
    <i name="e_wo_entrp">    -36.90111809 </i>
    <i name="e_0_energy">    -36.90112050 </i>
   </energy>
  </scstep>
  <scstep>
   <time name="diag">   86.66   87.06</time>
   <time name="diis">  272.26  274.28</time>
   <time name="orth">    3.10    3.10</time>
   <time name="total">  397.86  400.63</time>
   <energy>
    <i name="e_fr_energy">    -36.90112296 </i>
    <i name="e_wo_entrp">    -36.90111815 </i>
    <i name="e_0_energy">    -36.90112055 </i>
   </energy>
  </scstep>
  <scstep>
   <time name="diag">   86.69   87.03</time>
   <time name="diis">  268.70  269.44</time>
   <time name="orth">    3.08    3.08</time>
   <time name="total">  394.08  395.31</time>
   <energy>
    <i name="e_fr_energy">    -36.90112298 </i>
    <i name="e_wo_entrp">    -36.90111817 </i>
    <i name="e_0_energy">    -36.90112057 </i>
   </energy>
  </scstep>
  <scstep>
   <time name="diag">   86.85   87.01</time>
   <time name="diis">  241.44  242.89</time>
   <time name="orth">    3.08    3.09</time>
   <time name="total">  334.07  335.71</time>
   <energy>
    <i name="alphaZ">      6.18334092 </i>
    <i name="ewald">   2504.02367779 </i>
    <i name="hartreedc">  -2998.17467447 </i>
    <i name="XCdc">     57.29435920 </i>
    <i name="pawpsdc">    272.09609353 </i>
    <i name="pawaedc">   -277.22233947 </i>
    <i name="eentropy">     -0.00000481 </i>
    <i name="bandstr">   -189.72510258 </i>
    <i name="atom">    588.62352690 </i>
    <i name="e_fr_energy">    -36.90112298 </i>
    <i name="e_wo_entrp">    -36.90111817 </i>
    <i name="e_0_energy">    -36.90112057 </i>
   </energy>
  </scstep>
  <structure>
   <crystal>
    <varray name="basis" >
     <v>       4.26209388       0.00000000       0.00000000 </v>
     <v>       0.00000000       2.50418723       0.00000000 </v>
     <v>       0.00000000       0.00000000      19.75417404 </v>
    </varray>
    <i name="volume">    210.83790140 </i>
    <varray name="rec_basis" >
     <v>       0.23462646       0.00000000       0.00000000 </v>
     <v>       0.00000000       0.39933116       0.00000000 </v>
     <v>       0.00000000       0.00000000       0.05062221 </v>
    </varray>
   </crystal>
   <varray name="positions" >
    <v>       0.00039382       0.00000000       0.00000000 </v>
    <v>       0.16627284       0.50000000       0.00000000 </v>
    <v>       0.50039382       0.50000000       0.00000000 </v>
    <v>       0.66627284       0.00000000       0.00000000 </v>
   </varray>
  </structure>
  <varray name="forces" >
   <v>      -0.00116147      -0.00000000      -0.00000000 </v>
   <v>       0.00116147       0.00000000       0.00000000 </v>
   <v>      -0.00116147       0.00000000      -0.00000000 </v>
   <v>       0.00116147      -0.00000000       0.00000000 </v>
  </varray>
  <varray name="stress" >
   <v>      -0.00788673       0.00000000       0.00000000 </v>
   <v>       0.00000000     -24.82633510       0.00000000 </v>
   <v>       0.00000000       0.00000000      -0.01030764 </v>
  </varray>
  <energy>
   <i name="e_fr_energy">    -36.90112298 </i>
   <i name="e_wo_entrp">    -36.90112057 </i>
   <i name="e_0_energy">     -0.00000481 </i>
  </energy>
  <time name="totalsc">10199.5010259.05</time>
 </calculation>
 <calculation>
  <scstep>
   <time name="dav">  340.46  342.73</time>
   <time name="total">  376.08  378.50</time>
   <energy>
    <i name="alphaZ">      6.18334092 </i>
    <i name="ewald">   2504.02439917 </i>
    <i name="hartreedc">  -2998.17499667 </i>
    <i name="XCdc">     57.29438009 </i>
    <i name="pawpsdc">    272.09611589 </i>
    <i name="pawaedc">   -277.22236202 </i>
    <i name="eentropy">     -0.00000454 </i>
    <i name="bandstr">   -189.72552232 </i>
    <i name="atom">    588.62352690 </i>
    <i name="e_fr_energy">    -36.90112257 </i>
    <i name="e_wo_entrp">    -36.90111803 </i>
    <i name="e_0_energy">    -36.90112030 </i>
   </energy>
  </scstep>
  <scstep>
   <time name="diag">   86.24   87.05</time>
   <time name="diis">  353.81  355.70</time>
   <time name="orth">    3.08    3.08</time>
   <time name="total">  479.24  481.98</time>
   <energy>
    <i name="e_fr_energy">    -36.90112260 </i>
    <i name="e_wo_entrp">    -36.90111805 </i>
    <i name="e_0_energy">    -36.90112032 </i>
   </energy>
  </scstep>
  <scstep>
   <time name="diag">   86.55   87.09</time>
   <time name="diis">  357.39  359.96</time>
   <time name="orth">    3.08    3.09</time>
   <time name="total">  482.63  486.05</time>
   <energy>
    <i name="e_fr_energy">    -36.90112259 </i>
    <i name="e_wo_entrp">    -36.90111802 </i>
    <i name="e_0_energy">    -36.90112030 </i>
   </energy>
  </scstep>
  <scstep>
   <time name="diag">   86.78   87.04</time>
   <time name="diis">  361.95  363.51</time>
   <time name="orth">    3.08    3.08</time>
   <time name="total">  487.46  489.63</time>
   <energy>
    <i name="e_fr_energy">    -36.90112258 </i>
    <i name="e_wo_entrp">    -36.90111802 </i>
    <i name="e_0_energy">    -36.90112030 </i>
   </energy>
  </scstep>
  <scstep>
   <time name="diag">   86.80   87.07</time>
   <time name="diis">  282.00  282.28</time>
   <time name="orth">    3.19    3.22</time>
   <time name="total">  408.09  408.76</time>
   <energy>
    <i name="e_fr_energy">    -36.90112258 </i>
    <i name="e_wo_entrp">    -36.90111803 </i>
    <i name="e_0_energy">    -36.90112031 </i>
   </energy>
  </scstep>
  <scstep>
   <time name="diag">   86.25   87.07</time>
   <time name="diis">  234.62  237.04</time>
   <time name="orth">    3.10    3.10</time>
   <time name="total">  360.02  363.39</time>
   <energy>
    <i name="e_fr_energy">    -36.90112258 </i>
    <i name="e_wo_entrp">    -36.90111803 </i>
    <i name="e_0_energy">    -36.90112031 </i>
   </energy>
  </scstep>
  <scstep>
   <time name="diag">   86.85   87.21</time>
   <time name="diis">  238.94  239.34</time>
   <time name="orth">    3.10    3.10</time>
   <time name="total">  331.60  332.39</time>
   <energy>
    <i name="alphaZ">      6.18334092 </i>
    <i name="ewald">   2504.02439917 </i>
    <i name="hartreedc">  -2998.17529591 </i>
    <i name="XCdc">     57.29439290 </i>
    <i name="pawpsdc">    272.09739575 </i>
    <i name="pawaedc">   -277.22364761 </i>
    <i name="eentropy">     -0.00000456 </i>
    <i name="bandstr">   -189.72523014 </i>
    <i name="atom">    588.62352690 </i>
    <i name="e_fr_energy">    -36.90112258 </i>
    <i name="e_wo_entrp">    -36.90111803 </i>
    <i name="e_0_energy">    -36.90112031 </i>
   </energy>
  </scstep>
  <structure>
   <crystal>
    <varray name="basis" >
     <v>       4.26209388       0.00000000       0.00000000 </v>
     <v>       0.00000000       2.50418723       0.00000000 </v>
     <v>       0.00000000       0.00000000      19.75417404 </v>
    </varray>
    <i name="volume">    210.83790140 </i>
    <varray name="rec_basis" >
     <v>       0.23462646       0.00000000       0.00000000 </v>
     <v>       0.00000000       0.39933116       0.00000000 </v>
     <v>       0.00000000       0.00000000       0.05062221 </v>
    </varray>
   </crystal>
   <varray name="positions" >
    <v>       0.00038068      -0.00000000      -0.00000000 </v>
    <v>       0.16628599       0.50000000       0.00000000 </v>
    <v>       0.50038068       0.50000000      -0.00000000 </v>
    <v>       0.66628599      -0.00000000       0.00000000 </v>
   </varray>
  </structure>
  <varray name="forces" >
   <v>       0.00472929      -0.00000000       0.00000000 </v>
   <v>      -0.00472929       0.00000000       0.00000000 </v>
   <v>       0.00472929       0.00000000       0.00000000 </v>
   <v>      -0.00472929      -0.00000000       0.00000000 </v>
  </varray>
  <varray name="stress" >
   <v>       0.01402987       0.00000000       0.00000000 </v>
   <v>       0.00000000     -24.84257523       0.00000000 </v>
   <v>       0.00000000       0.00000000      -0.01021096 </v>
  </varray>
  <energy>
   <i name="e_fr_energy">    -36.90112258 </i>
   <i name="e_wo_entrp">    -36.90112031 </i>
   <i name="e_0_energy">     -0.00000456 </i>
  </energy>
  <time name="totalsc"> 3031.66 3047.76</time>
 </calculation>
 <calculation>
  <scstep>
   <time name="dav">  344.01  344.51</time>
   <time name="total">  379.94  380.62</time>
   <energy>
    <i name="alphaZ">      6.18334092 </i>
    <i name="ewald">   2504.02381968 </i>
    <i name="hartreedc">  -2998.17504987 </i>
    <i name="XCdc">     57.29437643 </i>
    <i name="pawpsdc">    272.09738773 </i>
    <i name="pawaedc">   -277.22363960 </i>
    <i name="eentropy">     -0.00000478 </i>
    <i name="bandstr">   -189.72488043 </i>
    <i name="atom">    588.62352690 </i>
    <i name="e_fr_energy">    -36.90112301 </i>
    <i name="e_wo_entrp">    -36.90111823 </i>
    <i name="e_0_energy">    -36.90112062 </i>
   </energy>
  </scstep>
  <scstep>
   <time name="diag">   86.71   87.18</time>
   <time name="diis">  354.06  354.27</time>
   <time name="orth">    3.11    3.11</time>
   <time name="total">  480.34  481.03</time>
   <energy>
    <i name="e_fr_energy">    -36.90112302 </i>
    <i name="e_wo_entrp">    -36.90111825 </i>
    <i name="e_0_energy">    -36.90112064 </i>
   </energy>
  </scstep>
  <scstep>
   <time name="diag">   87.17   87.20</time>
   <time name="diis">  357.99  358.08</time>
   <time name="orth">    3.11    3.11</time>
   <time name="total">  484.43  484.56</time>
   <energy>
    <i name="e_fr_energy">    -36.90112301 </i>
    <i name="e_wo_entrp">    -36.90111825 </i>
    <i name="e_0_energy">    -36.90112063 </i>
   </energy>
  </scstep>
  <scstep>
   <time name="diag">   87.23   87.24</time>
   <time name="diis">  363.50  364.09</time>
   <time name="orth">    3.11    3.11</time>
   <time name="total">  490.46  491.12</time>
   <energy>
    <i name="e_fr_energy">    -36.90112300 </i>
    <i name="e_wo_entrp">    -36.90111824 </i>
    <i name="e_0_energy">    -36.90112062 </i>
   </energy>
  </scstep>
  <scstep>
   <time name="diag">   87.22   87.26</time>
   <time name="diis">  260.95  261.08</time>
   <time name="orth">    3.11    3.11</time>
   <time name="total">  387.36  387.55</time>
   <energy>
    <i name="e_fr_energy">    -36.90112300 </i>
    <i name="e_wo_entrp">    -36.90111824 </i>
    <i name="e_0_energy">    -36.90112062 </i>
   </energy>
  </scstep>
  <scstep>
   <time name="diag">   87.09   87.18</time>
   <time name="diis">  236.42  237.26</time>
   <time name="orth">    3.08    3.09</time>
   <time name="total">  363.24  364.19</time>
   <energy>
    <i name="e_fr_energy">    -36.90112300 </i>
    <i name="e_wo_entrp">    -36.90111824 </i>
    <i name="e_0_energy">    -36.90112062 </i>
   </energy>
  </scstep>
  <scstep>
   <time name="diag">   87.21   87.24</time>
   <time name="diis">  237.37  237.43</time>
   <time name="orth">    3.08    3.08</time>
   <time name="total">  363.90  364.02</time>
   <energy>
    <i name="e_fr_energy">    -36.90112300 </i>
    <i name="e_wo_entrp">    -36.90111824 </i>
    <i name="e_0_energy">    -36.90112062 </i>
   </energy>
  </scstep>
  <scstep>
   <time name="diag">   87.11   87.13</time>
   <time name="diis">  219.08  219.12</time>
   <time name="orth">    3.07    3.08</time>
   <time name="total">  345.53  345.60</time>
   <energy>
    <i name="e_fr_energy">    -36.90112300 </i>
    <i name="e_wo_entrp">    -36.90111824 </i>
    <i name="e_0_energy">    -36.90112062 </i>
   </energy>
  </scstep>
  <scstep>
   <time name="diag">   87.20   87.22</time>
   <time name="diis">  208.78  208.82</time>
   <time name="orth">    3.12    3.12</time>
   <time name="total">  335.73  335.83</time>
   <energy>
    <i name="e_fr_energy">    -36.90112300 </i>
    <i name="e_wo_entrp">    -36.90111824 </i>
    <i name="e_0_energy">    -36.90112062 </i>
   </energy>
  </scstep>
  <scstep>
   <time name="diag">   87.20   87.24</time>
   <time name="diis">  201.63  201.67</time>
   <time name="orth">    3.08    3.08</time>
   <time name="total">  328.46  328.70</time>
   <energy>
    <i name="e_fr_energy">    -36.90112300 </i>
    <i name="e_wo_entrp">    -36.90111824 </i>
    <i name="e_0_energy">    -36.90112062 </i>
   </energy>
  </scstep>
  <scstep>
   <time name="diag">   87.19   87.20</time>
   <time name="diis">  195.22  195.27</time>
   <time name="orth">    3.12    3.12</time>
   <time name="total">  288.25  288.37</time>
   <energy>
    <i name="alphaZ">      6.18334092 </i>
    <i name="ewald">   2504.02381968 </i>
    <i name="hartreedc">  -2998.17481813 </i>
    <i name="XCdc">     57.29436653 </i>
    <i name="pawpsdc">    272.09637738 </i>
    <i name="pawaedc">   -277.22262482 </i>
    <i name="eentropy">     -0.00000476 </i>
    <i name="bandstr">   -189.72510672 </i>
    <i name="atom">    588.62352690 </i>
    <i name="e_fr_energy">    -36.90112300 </i>
    <i name="e_wo_entrp">    -36.90111824 </i>
    <i name="e_0_energy">    -36.90112062 </i>
   </energy>
  </scstep>
  <structure>
   <crystal>
    <varray name="basis" >
     <v>       4.26209388       0.00000000       0.00000000 </v>
     <v>       0.00000000       2.50418723       0.00000000 </v>
     <v>       0.00000000       0.00000000      19.75417404 </v>
    </varray>
    <i name="volume">    210.83790140 </i>
    <varray name="rec_basis" >
     <v>       0.23462646       0.00000000       0.00000000 </v>
     <v>       0.00000000       0.39933116       0.00000000 </v>
     <v>       0.00000000       0.00000000       0.05062221 </v>
    </varray>
   </crystal>
   <varray name="positions" >
    <v>       0.00039123      -0.00000000      -0.00000000 </v>
    <v>       0.16627544       0.50000000       0.00000000 </v>
    <v>       0.50039123       0.50000000      -0.00000000 </v>
    <v>       0.66627544      -0.00000000       0.00000000 </v>
   </varray>
  </structure>
  <varray name="forces" >
   <v>       0.00000257      -0.00000000       0.00000000 </v>
   <v>      -0.00000257       0.00000000      -0.00000000 </v>
   <v>       0.00000257      -0.00000000       0.00000000 </v>
   <v>      -0.00000257       0.00000000      -0.00000000 </v>
  </varray>
  <varray name="stress" >
   <v>      -0.00351544       0.00000000       0.00000000 </v>
   <v>       0.00000000     -24.82956083       0.00000000 </v>
   <v>       0.00000000       0.00000000      -0.01024065 </v>
  </varray>
  <energy>
   <i name="e_fr_energy">    -36.90112300 </i>
   <i name="e_wo_entrp">    -36.90112062 </i>
   <i name="e_0_energy">     -0.00000476 </i>
  </energy>
  <time name="totalsc"> 4353.75 4358.37</time>
 </calculation>
 <calculation>
  <scstep>
   <time name="dav">  273.29  273.49</time>
   <time name="total">  309.50  309.71</time>
   <energy>
    <i name="alphaZ">      6.18334092 </i>
    <i name="ewald">   2504.02381936 </i>
    <i name="hartreedc">  -2998.17481601 </i>
    <i name="XCdc">     57.29436651 </i>
    <i name="pawpsdc">    272.09637757 </i>
    <i name="pawaedc">   -277.22262501 </i>
    <i name="eentropy">     -0.00000476 </i>
    <i name="bandstr">   -189.72510849 </i>
    <i name="atom">    588.62352690 </i>
    <i name="e_fr_energy">    -36.90112300 </i>
    <i name="e_wo_entrp">    -36.90111824 </i>
    <i name="e_0_energy">    -36.90112062 </i>
   </energy>
  </scstep>
  <scstep>
   <time name="diag">   87.03   87.14</time>
   <time name="diis">  162.55  162.76</time>
   <time name="orth">    3.07    3.08</time>
   <time name="total">  287.88  288.29</time>
   <energy>
    <i name="e_fr_energy">    -36.90112300 </i>
    <i name="e_wo_entrp">    -36.90111824 </i>
    <i name="e_0_energy">    -36.90112062 </i>
   </energy>
  </scstep>
  <scstep>
   <time name="diag">   86.81   87.12</time>
   <time name="diis">  160.12  160.52</time>
   <time name="orth">    3.07    3.07</time>
   <time name="total">  285.51  286.23</time>
   <energy>
    <i name="e_fr_energy">    -36.90112300 </i>
    <i name="e_wo_entrp">    -36.90111824 </i>
    <i name="e_0_energy">    -36.90112062 </i>
   </energy>
  </scstep>
  <scstep>
   <time name="diag">   86.68   87.19</time>
   <time name="diis">  165.17  166.23</time>
   <time name="orth">    3.08    3.10</time>
   <time name="total">  291.04  292.85</time>
   <energy>
    <i name="e_fr_energy">    -36.90112300 </i>
    <i name="e_wo_entrp">    -36.90111824 </i>
    <i name="e_0_energy">    -36.90112062 </i>
   </energy>
  </scstep>
  <scstep>
   <time name="diag">   86.71   87.17</time>
   <time name="diis">  158.34  158.99</time>
   <time name="orth">    3.07    3.09</time>
   <time name="total">  284.16  285.59</time>
   <energy>
    <i name="e_fr_energy">    -36.90112300 </i>
    <i name="e_wo_entrp">    -36.90111824 </i>
    <i name="e_0_energy">    -36.90112062 </i>
   </energy>
  </scstep>
  <scstep>
   <time name="diag">   86.83   87.23</time>
   <time name="diis">  163.24  163.97</time>
   <time name="orth">    3.07    3.10</time>
   <time name="total">  289.16  290.75</time>
   <energy>
    <i name="e_fr_energy">    -36.90112300 </i>
    <i name="e_wo_entrp">    -36.90111824 </i>
    <i name="e_0_energy">    -36.90112062 </i>
   </energy>
  </scstep>
  <scstep>
   <time name="diag">   86.39   87.26</time>
   <time name="diis">  162.63  164.01</time>
   <time name="orth">    3.08    3.08</time>
   <time name="total">  288.05  290.55</time>
   <energy>
    <i name="e_fr_energy">    -36.90112300 </i>
    <i name="e_wo_entrp">    -36.90111824 </i>
    <i name="e_0_energy">    -36.90112062 </i>
   </energy>
  </scstep>
  <scstep>
   <time name="diag">   86.52   87.25</time>
   <time name="diis">  161.43  162.93</time>
   <time name="orth">    3.08    3.10</time>
   <time name="total">  287.10  289.60</time>
   <energy>
    <i name="e_fr_energy">    -36.90112300 </i>
    <i name="e_wo_entrp">    -36.90111824 </i>
    <i name="e_0_energy">    -36.90112062 </i>
   </energy>
  </scstep>
  <scstep>
   <time name="diag">   86.74   87.18</time>
   <time name="diis">  161.64  161.85</time>
   <time name="orth">    3.10    3.10</time>
   <time name="total">  287.61  288.32</time>
   <energy>
    <i name="e_fr_energy">    -36.90112300 </i>
    <i name="e_wo_entrp">    -36.90111824 </i>
    <i name="e_0_energy">    -36.90112062 </i>
   </energy>
  </scstep>
  <scstep>
   <time name="diag">   87.11   87.19</time>
   <time name="diis">  155.81  156.09</time>
   <time name="orth">    3.07    3.07</time>
   <time name="total">  281.94  282.53</time>
   <energy>
    <i name="e_fr_energy">    -36.90112300 </i>
    <i name="e_wo_entrp">    -36.90111824 </i>
    <i name="e_0_energy">    -36.90112062 </i>
   </energy>
  </scstep>
  <scstep>
   <time name="diag">   87.05   87.21</time>
   <time name="diis">  153.53  153.77</time>
   <time name="orth">    3.08    3.08</time>
   <time name="total">  279.82  280.31</time>
   <energy>
    <i name="e_fr_energy">    -36.90112300 </i>
    <i name="e_wo_entrp">    -36.90111824 </i>
    <i name="e_0_energy">    -36.90112062 </i>
   </energy>
  </scstep>
  <scstep>
   <time name="diag">   87.01   87.23</time>
   <time name="diis">  147.55  147.77</time>
   <time name="orth">    3.07    3.08</time>
   <time name="total">  273.65  274.18</time>
   <energy>
    <i name="e_fr_energy">    -36.90112300 </i>
    <i name="e_wo_entrp">    -36.90111824 </i>
    <i name="e_0_energy">    -36.90112062 </i>
   </energy>
  </scstep>
  <scstep>
   <time name="diag">   87.00   87.24</time>
   <time name="diis">  160.34  160.63</time>
   <time name="orth">    3.09    3.09</time>
   <time name="total">  253.19  253.72</time>
   <energy>
    <i name="alphaZ">      6.18334092 </i>
    <i name="ewald">   2504.02381936 </i>
    <i name="hartreedc">  -2998.17481615 </i>
    <i name="XCdc">     57.29436653 </i>
    <i name="pawpsdc">    272.09637761 </i>
    <i name="pawaedc">   -277.22262505 </i>
    <i name="eentropy">     -0.00000476 </i>
    <i name="bandstr">   -189.72510838 </i>
    <i name="atom">    588.62352690 </i>
    <i name="e_fr_energy">    -36.90112300 </i>
    <i name="e_wo_entrp">    -36.90111824 </i>
    <i name="e_0_energy">    -36.90112062 </i>
   </energy>
  </scstep>
  <structure>
   <crystal>
    <varray name="basis" >
     <v>       4.26209388       0.00000000       0.00000000 </v>
     <v>       0.00000000       2.50418723       0.00000000 </v>
     <v>       0.00000000       0.00000000      19.75417404 </v>
    </varray>
    <i name="volume">    210.83790140 </i>
    <varray name="rec_basis" >
     <v>       0.23462646       0.00000000       0.00000000 </v>
     <v>       0.00000000       0.39933116       0.00000000 </v>
     <v>       0.00000000       0.00000000       0.05062221 </v>
    </varray>
   </crystal>
   <varray name="positions" >
    <v>       0.00039124      -0.00000000      -0.00000000 </v>
    <v>       0.16627543       0.50000000       0.00000000 </v>
    <v>       0.50039124       0.50000000      -0.00000000 </v>
    <v>       0.66627543      -0.00000000       0.00000000 </v>
   </varray>
  </structure>
  <varray name="forces" >
   <v>      -0.00000102       0.00000000       0.00000000 </v>
   <v>       0.00000102       0.00000000       0.00000000 </v>
   <v>      -0.00000102       0.00000000       0.00000000 </v>
   <v>       0.00000102      -0.00000000       0.00000000 </v>
  </varray>
  <varray name="stress" >
   <v>      -0.00353829       0.00000000       0.00000000 </v>
   <v>       0.00000000     -24.82954200       0.00000000 </v>
   <v>       0.00000000       0.00000000      -0.01023221 </v>
  </varray>
  <energy>
   <i name="e_fr_energy">    -36.90112300 </i>
   <i name="e_wo_entrp">    -36.90112062 </i>
   <i name="e_0_energy">     -0.00000476 </i>
  </energy>
  <time name="totalsc"> 3803.17 3817.57</time>
 </calculation>
 <calculation>
  <scstep>
   <time name="dav">  272.65  274.02</time>
   <time name="total">  308.60  310.36</time>
   <energy>
    <i name="alphaZ">      6.18334092 </i>
    <i name="ewald">   2504.02381945 </i>
    <i name="hartreedc">  -2998.17481618 </i>
    <i name="XCdc">     57.29436653 </i>
    <i name="pawpsdc">    272.09637761 </i>
    <i name="pawaedc">   -277.22262505 </i>
    <i name="eentropy">     -0.00000476 </i>
    <i name="bandstr">   -189.72510844 </i>
    <i name="atom">    588.62352690 </i>
    <i name="e_fr_energy">    -36.90112300 </i>
    <i name="e_wo_entrp">    -36.90111824 </i>
    <i name="e_0_energy">    -36.90112062 </i>
   </energy>
  </scstep>
  <scstep>
   <time name="diag">   86.60   87.24</time>
   <time name="diis">  125.82  126.27</time>
   <time name="orth">    3.09    3.10</time>
   <time name="total">  251.64  252.90</time>
   <energy>
    <i name="e_fr_energy">    -36.90112300 </i>
    <i name="e_wo_entrp">    -36.90111824 </i>
    <i name="e_0_energy">    -36.90112062 </i>
   </energy>
  </scstep>
  <scstep>
   <time name="diag">   87.11   87.31</time>
   <time name="diis">  122.04  122.93</time>
   <time name="orth">    3.08    3.08</time>
   <time name="total">  247.89  249.33</time>
   <energy>
    <i name="e_fr_energy">    -36.90112300 </i>
    <i name="e_wo_entrp">    -36.90111824 </i>
    <i name="e_0_energy">    -36.90112062 </i>
   </energy>
  </scstep>
  <scstep>
   <time name="diag">   86.59   87.26</time>
   <time name="diis">  140.94  142.14</time>
   <time name="orth">    3.08    3.08</time>
   <time name="total">  266.43  268.83</time>
   <energy>
    <i name="e_fr_energy">    -36.90112300 </i>
    <i name="e_wo_entrp">    -36.90111824 </i>
    <i name="e_0_energy">    -36.90112062 </i>
   </energy>
  </scstep>
  <scstep>
   <time name="diag">   86.74   87.23</time>
   <time name="diis">  120.32  120.50</time>
   <time name="orth">    3.09    3.10</time>
   <time name="total">  212.84  213.67</time>
   <energy>
    <i name="alphaZ">      6.18334092 </i>
    <i name="ewald">   2504.02381945 </i>
    <i name="hartreedc">  -2998.17481615 </i>
    <i name="XCdc">     57.29436653 </i>
    <i name="pawpsdc">    272.09637782 </i>
    <i name="pawaedc">   -277.22262526 </i>
    <i name="eentropy">     -0.00000476 </i>
    <i name="bandstr">   -189.72510846 </i>
    <i name="atom">    588.62352690 </i>
    <i name="e_fr_energy">    -36.90112300 </i>
    <i name="e_wo_entrp">    -36.90111824 </i>
    <i name="e_0_energy">    -36.90112062 </i>
   </energy>
  </scstep>
  <structure>
   <crystal>
    <varray name="basis" >
     <v>       4.26209388       0.00000000       0.00000000 </v>
     <v>       0.00000000       2.50418723       0.00000000 </v>
     <v>       0.00000000       0.00000000      19.75417404 </v>
    </varray>
    <i name="volume">    210.83790140 </i>
    <varray name="rec_basis" >
     <v>       0.23462646       0.00000000       0.00000000 </v>
     <v>       0.00000000       0.39933116       0.00000000 </v>
     <v>       0.00000000       0.00000000       0.05062221 </v>
    </varray>
   </crystal>
   <varray name="positions" >
    <v>       0.00039124      -0.00000000      -0.00000000 </v>
    <v>       0.16627543       0.50000000       0.00000000 </v>
    <v>       0.50039124       0.50000000      -0.00000000 </v>
    <v>       0.66627543      -0.00000000       0.00000000 </v>
   </varray>
  </structure>
  <varray name="forces" >
   <v>       0.00000021      -0.00000000       0.00000000 </v>
   <v>      -0.00000021      -0.00000000      -0.00000000 </v>
   <v>       0.00000021      -0.00000000       0.00000000 </v>
   <v>      -0.00000021       0.00000000      -0.00000000 </v>
  </varray>
  <varray name="stress" >
   <v>      -0.00353401       0.00000000       0.00000000 </v>
   <v>       0.00000000     -24.82954342       0.00000000 </v>
   <v>       0.00000000       0.00000000      -0.01023328 </v>
  </varray>
  <energy>
   <i name="e_fr_energy">    -36.90112300 </i>
   <i name="e_wo_entrp">    -36.90112062 </i>
   <i name="e_0_energy">     -0.00000476 </i>
  </energy>
  <time name="totalsc"> 1385.76 1393.65</time>
  <eigenvalues>
   <array>
    <dimension dim="1">band</dimension>
    <dimension dim="2">kpoint</dimension>
    <dimension dim="3">spin</dimension>
    <field>eigene</field>
    <field>occ</field>
    <set>
     <set comment="spin 1">
      <set comment="kpoint 1">
       <r>  -22.1504    1.0000 </r>
       <r>  -16.8303    1.0000 </r>
       <r>  -15.9067    1.0000 </r>
       <r>  -10.2792    1.0000 </r>
       <r>   -9.3548    1.0000 </r>
       <r>   -5.9161    1.0000 </r>
       <r>   -5.7546    1.0000 </r>
       <r>   -4.9866    1.0000 </r>
       <r>   -1.1123    0.0000 </r>
       <r>    0.5362    0.0000 </r>
       <r>    1.3356    0.0000 </r>
       <r>    1.7247    0.0000 </r>
      </set>
      <set comment="kpoint 2">
       <r>  -22.1401    1.0000 </r>
       <r>  -17.0130    1.0000 </r>
       <r>  -15.7088    1.0000 </r>
       <r>  -10.2669    1.0000 </r>
       <r>   -9.3445    1.0000 </r>
       <r>   -5.9393    1.0000 </r>
       <r>   -5.7958    1.0000 </r>
       <r>   -5.0552    1.0000 </r>
       <r>   -1.0284    0.0000 </r>
       <r>    0.5502    0.0000 </r>
       <r>    1.3497    0.0000 </r>
       <r>    1.7390    0.0000 </r>
      </set>
      <set comment="kpoint 3">
       <r>  -22.1091    1.0000 </r>
       <r>  -17.3678    1.0000 </r>
       <r>  -15.3087    1.0000 </r>
       <r>  -10.2301    1.0000 </r>
       <r>   -9.3135    1.0000 </r>
       <r>   -6.0078    1.0000 </r>
       <r>   -5.9179    1.0000 </r>
       <r>   -5.2449    1.0000 </r>
       <r>   -0.7930    0.0000 </r>
       <r>    0.5922    0.0000 </r>
       <r>    1.3922    0.0000 </r>
       <r>    1.7820    0.0000 </r>
      </set>
      <set comment="kpoint 4">
       <r>  -22.0575    1.0000 </r>
       <r>  -17.7544    1.0000 </r>
       <r>  -14.8470    1.0000 </r>
       <r>  -10.1687    1.0000 </r>
       <r>   -9.2622    1.0000 </r>
       <r>   -6.1178    1.0000 </r>
       <r>   -6.1164    1.0000 </r>
       <r>   -5.5201    1.0000 </r>
       <r>   -0.4422    0.0000 </r>
       <r>    0.6622    0.0000 </r>
       <r>    1.4630    0.0000 </r>
       <r>    1.8537    0.0000 </r>
      </set>
      <set comment="kpoint 5">
       <r>  -21.9853    1.0000 </r>
       <r>  -18.1400    1.0000 </r>
       <r>  -14.3568    1.0000 </r>
       <r>  -10.0830    1.0000 </r>
       <r>   -9.1906    1.0000 </r>
       <r>   -6.3846    1.0000 </r>
       <r>   -6.2637    1.0000 </r>
       <r>   -5.8465    1.0000 </r>
       <r>   -0.0113    0.0000 </r>
       <r>    0.7602    0.0000 </r>
       <r>    1.5620    0.0000 </r>
       <r>    1.9540    0.0000 </r>
      </set>
      <set comment="kpoint 6">
       <r>  -21.8926    1.0000 </r>
       <r>  -18.5153    1.0000 </r>
       <r>  -13.8482    1.0000 </r>
       <r>   -9.9730    1.0000 </r>
       <r>   -9.0993    1.0000 </r>
       <r>   -6.7142    1.0000 </r>
       <r>   -6.4389    1.0000 </r>
       <r>   -6.1990    1.0000 </r>
       <r>    0.4736    0.0000 </r>
       <r>    0.8861    0.0000 </r>
       <r>    1.6893    0.0000 </r>
       <r>    2.0830    0.0000 </r>
      </set>
      <set comment="kpoint 7">
       <r>  -21.7794    1.0000 </r>
       <r>  -18.8763    1.0000 </r>
       <r>  -13.3260    1.0000 </r>
       <r>   -9.8390    1.0000 </r>
       <r>   -8.9886    1.0000 </r>
       <r>   -7.0967    1.0000 </r>
       <r>   -6.6367    1.0000 </r>
       <r>   -6.5614    1.0000 </r>
       <r>    0.9944    0.0000 </r>
       <r>    1.0400    0.0000 </r>
       <r>    1.8447    0.0000 </r>
       <r>    2.2406    0.0000 </r>
      </set>
      <set comment="kpoint 8">
       <r>  -21.6458    1.0000 </r>
       <r>  -19.2213    1.0000 </r>
       <r>  -12.7932    1.0000 </r>
       <r>   -9.6811    1.0000 </r>
       <r>   -8.8592    1.0000 </r>
       <r>   -7.5232    1.0000 </r>
       <r>   -6.9232    1.0000 </r>
       <r>   -6.8503    1.0000 </r>
       <r>    1.2219    0.0000 </r>
       <r>    1.5386    0.0000 </r>
       <r>    2.0283    0.0000 </r>
       <r>    2.4269    0.0000 </r>
      </set>
      <set comment="kpoint 9">
       <r>  -21.4918    1.0000 </r>
       <r>  -19.5490    1.0000 </r>
       <r>  -12.2522    1.0000 </r>
       <r>   -9.4997    1.0000 </r>
       <r>   -8.7120    1.0000 </r>
       <r>   -7.9857    1.0000 </r>
       <r>   -7.2776    1.0000 </r>
       <r>   -7.0737    1.0000 </r>
       <r>    1.4316    0.0000 </r>
       <r>    2.0967    0.0000 </r>
       <r>    2.2399    0.0000 </r>
       <r>    2.6418    0.0000 </r>
      </set>
      <set comment="kpoint 10">
       <r>  -21.3177    1.0000 </r>
       <r>  -19.8588    1.0000 </r>
       <r>  -11.7056    1.0000 </r>
       <r>   -9.2951    1.0000 </r>
       <r>   -8.5480    1.0000 </r>
       <r>   -8.4767    1.0000 </r>
       <r>   -7.6200    1.0000 </r>
       <r>   -7.3014    1.0000 </r>
       <r>    1.6691    0.0000 </r>
       <r>    2.4794    0.0000 </r>
       <r>    2.6603    0.0000 </r>
       <r>    2.8854    0.0000 </r>
      </set>
      <set comment="kpoint 11">
       <r>  -21.1236    1.0000 </r>
       <r>  -20.1501    1.0000 </r>
       <r>  -11.1558    1.0000 </r>
       <r>   -9.0679    1.0000 </r>
       <r>   -8.9896    1.0000 </r>
       <r>   -8.3683    1.0000 </r>
       <r>   -7.9473    1.0000 </r>
       <r>   -7.5290    1.0000 </r>
       <r>    1.9344    0.0000 </r>
       <r>    2.7463    0.0000 </r>
       <r>    3.1576    0.0000 </r>
       <r>    3.2178    0.0000 </r>
      </set>
      <set comment="kpoint 12">
       <r>  -20.9095    1.0000 </r>
       <r>  -20.4225    1.0000 </r>
       <r>  -10.6058    1.0000 </r>
       <r>   -9.5187    1.0000 </r>
       <r>   -8.8187    1.0000 </r>
       <r>   -8.2573    1.0000 </r>
       <r>   -8.1745    1.0000 </r>
       <r>   -7.7524    1.0000 </r>
       <r>    2.2273    0.0000 </r>
       <r>    2.8952    0.0000 </r>
       <r>    3.0398    0.0000 </r>
       <r>    3.4583    0.0000 </r>
      </set>
      <set comment="kpoint 13">
       <r>  -20.6758    1.0000 </r>
       <r>  -20.6758    1.0000 </r>
       <r>  -10.0589    1.0000 </r>
       <r>  -10.0589    1.0000 </r>
       <r>   -8.5481    1.0000 </r>
       <r>   -8.5481    1.0000 </r>
       <r>   -7.9685    1.0000 </r>
       <r>   -7.9685    1.0000 </r>
       <r>    2.5477    0.0000 </r>
       <r>    2.5477    0.0000 </r>
       <r>    3.3557    0.0000 </r>
       <r>    3.3557    0.0000 </r>
      </set>
      <set comment="kpoint 14">
       <r>  -22.1371    1.0000 </r>
       <r>  -16.8188    1.0000 </r>
       <r>  -15.8958    1.0000 </r>
       <r>  -10.2634    1.0000 </r>
       <r>   -9.4143    1.0000 </r>
       <r>   -5.9709    1.0000 </r>
       <r>   -5.7861    1.0000 </r>
       <r>   -4.9705    1.0000 </r>
       <r>   -1.1176    0.0000 </r>
       <r>    0.5542    0.0000 </r>
       <r>    1.3538    0.0000 </r>
       <r>    1.7431    0.0000 </r>
      </set>
      <set comment="kpoint 15">
       <r>  -22.1268    1.0000 </r>
       <r>  -17.0015    1.0000 </r>
       <r>  -15.6981    1.0000 </r>
       <r>  -10.2511    1.0000 </r>
       <r>   -9.4040    1.0000 </r>
       <r>   -5.9980    1.0000 </r>
       <r>   -5.8227    1.0000 </r>
       <r>   -5.0393    1.0000 </r>
       <r>   -1.0336    0.0000 </r>
       <r>    0.5682    0.0000 </r>
       <r>    1.3680    0.0000 </r>
       <r>    1.7575    0.0000 </r>
      </set>
      <set comment="kpoint 16">
       <r>  -22.0958    1.0000 </r>
       <r>  -17.3560    1.0000 </r>
       <r>  -15.2985    1.0000 </r>
       <r>  -10.2143    1.0000 </r>
       <r>   -9.3730    1.0000 </r>
       <r>   -6.0813    1.0000 </r>
       <r>   -5.9280    1.0000 </r>
       <r>   -5.2294    1.0000 </r>
       <r>   -0.7983    0.0000 </r>
       <r>    0.6102    0.0000 </r>
       <r>    1.4104    0.0000 </r>
       <r>    1.8005    0.0000 </r>
      </set>
      <set comment="kpoint 17">
       <r>  -22.0443    1.0000 </r>
       <r>  -17.7424    1.0000 </r>
       <r>  -14.8372    1.0000 </r>
       <r>  -10.1530    1.0000 </r>
       <r>   -9.3215    1.0000 </r>
       <r>   -6.2303    1.0000 </r>
       <r>   -6.0844    1.0000 </r>
       <r>   -5.5049    1.0000 </r>
       <r>   -0.4478    0.0000 </r>
       <r>    0.6802    0.0000 </r>
       <r>    1.4812    0.0000 </r>
       <r>    1.8721    0.0000 </r>
      </set>
      <set comment="kpoint 18">
       <r>  -21.9721    1.0000 </r>
       <r>  -18.1279    1.0000 </r>
       <r>  -14.3476    1.0000 </r>
       <r>  -10.0673    1.0000 </r>
       <r>   -9.2497    1.0000 </r>
       <r>   -6.4616    1.0000 </r>
       <r>   -6.2637    1.0000 </r>
       <r>   -5.8315    1.0000 </r>
       <r>   -0.0175    0.0000 </r>
       <r>    0.7782    0.0000 </r>
       <r>    1.5802    0.0000 </r>
       <r>    1.9724    0.0000 </r>
      </set>
      <set comment="kpoint 19">
       <r>  -21.8794    1.0000 </r>
       <r>  -18.5029    1.0000 </r>
       <r>  -13.8398    1.0000 </r>
       <r>   -9.9573    1.0000 </r>
       <r>   -9.1581    1.0000 </r>
       <r>   -6.7699    1.0000 </r>
       <r>   -6.4567    1.0000 </r>
       <r>   -6.1842    1.0000 </r>
       <r>    0.4664    0.0000 </r>
       <r>    0.9041    0.0000 </r>
       <r>    1.7074    0.0000 </r>
       <r>    2.1014    0.0000 </r>
      </set>
[...]
       <r>   -9.0866    1.0000 </r>
       <r>   -5.6372    1.0000 </r>
       <r>   -5.6372    1.0000 </r>
       <r>   -0.5137    0.0000 </r>
       <r>   -0.5137    0.0000 </r>
       <r>    4.8233    0.0000 </r>
       <r>    4.8233    0.0000 </r>
      </set>
      <set comment="kpoint 209">
       <r>  -18.8401    1.0000 </r>
       <r>  -17.1119    1.0000 </r>
       <r>  -13.9362    1.0000 </r>
       <r>  -12.3556    1.0000 </r>
       <r>  -12.3522    1.0000 </r>
       <r>  -10.8647    1.0000 </r>
       <r>   -6.4679    1.0000 </r>
       <r>   -4.6319    1.0000 </r>
       <r>   -0.9924    0.0000 </r>
       <r>    1.1068    0.0000 </r>
       <r>    5.1177    0.0000 </r>
       <r>    5.9067    0.0000 </r>
      </set>
      <set comment="kpoint 210">
       <r>  -18.8303    1.0000 </r>
       <r>  -17.1043    1.0000 </r>
       <r>  -14.0262    1.0000 </r>
       <r>  -12.4364    1.0000 </r>
       <r>  -12.2574    1.0000 </r>
       <r>  -10.7823    1.0000 </r>
       <r>   -6.4591    1.0000 </r>
       <r>   -4.6343    1.0000 </r>
       <r>   -1.0030    0.0000 </r>
       <r>    1.0809    0.0000 </r>
       <r>    5.1314    0.0000 </r>
       <r>    5.9228    0.0000 </r>
      </set>
      <set comment="kpoint 211">
       <r>  -18.8011    1.0000 </r>
       <r>  -17.0820    1.0000 </r>
       <r>  -14.2476    1.0000 </r>
       <r>  -12.6472    1.0000 </r>
       <r>  -12.0115    1.0000 </r>
       <r>  -10.5776    1.0000 </r>
       <r>   -6.4327    1.0000 </r>
       <r>   -4.6419    1.0000 </r>
       <r>   -1.0329    0.0000 </r>
       <r>    1.0054    0.0000 </r>
       <r>    5.1724    0.0000 </r>
       <r>    5.9709    0.0000 </r>
      </set>
      <set comment="kpoint 212">
       <r>  -18.7525    1.0000 </r>
       <r>  -17.0461    1.0000 </r>
       <r>  -14.5273    1.0000 </r>
       <r>  -12.9209    1.0000 </r>
       <r>  -11.6910    1.0000 </r>
       <r>  -10.3165    1.0000 </r>
       <r>   -6.3891    1.0000 </r>
       <r>   -4.6564    1.0000 </r>
       <r>   -1.0769    0.0000 </r>
       <r>    0.8855    0.0000 </r>
       <r>    5.2403    0.0000 </r>
       <r>    6.0499    0.0000 </r>
      </set>
      <set comment="kpoint 213">
       <r>  -18.6848    1.0000 </r>
       <r>  -16.9994    1.0000 </r>
       <r>  -14.8228    1.0000 </r>
       <r>  -13.2202    1.0000 </r>
       <r>  -11.3382    1.0000 </r>
       <r>  -10.0396    1.0000 </r>
       <r>   -6.3288    1.0000 </r>
       <r>   -4.6800    1.0000 </r>
       <r>   -1.1270    0.0000 </r>
       <r>    0.7291    0.0000 </r>
       <r>    5.3343    0.0000 </r>
       <r>    6.1583    0.0000 </r>
      </set>
      <set comment="kpoint 214">
       <r>  -18.5980    1.0000 </r>
       <r>  -16.9471    1.0000 </r>
       <r>  -15.1104    1.0000 </r>
       <r>  -13.5270    1.0000 </r>
       <r>  -10.9749    1.0000 </r>
       <r>   -9.7697    1.0000 </r>
       <r>   -6.2525    1.0000 </r>
       <r>   -4.7156    1.0000 </r>
       <r>   -1.1740    0.0000 </r>
       <r>    0.5452    0.0000 </r>
       <r>    5.4506    0.0000 </r>
       <r>    6.1809    0.0000 </r>
      </set>
      <set comment="kpoint 215">
       <r>  -18.4926    1.0000 </r>
       <r>  -16.8988    1.0000 </r>
       <r>  -15.3712    1.0000 </r>
       <r>  -13.8317    1.0000 </r>
       <r>  -10.6148    1.0000 </r>
       <r>   -9.5221    1.0000 </r>
       <r>   -6.1612    1.0000 </r>
       <r>   -4.7659    1.0000 </r>
       <r>   -1.2085    0.0000 </r>
       <r>    0.3427    0.0000 </r>
       <r>    5.5445    0.0000 </r>
       <r>    5.7924    0.0000 </r>
      </set>
      <set comment="kpoint 216">
       <r>  -18.3691    1.0000 </r>
       <r>  -16.8728    1.0000 </r>
       <r>  -15.5823    1.0000 </r>
       <r>  -14.1287    1.0000 </r>
       <r>  -10.2682    1.0000 </r>
       <r>   -9.3090    1.0000 </r>
       <r>   -6.0564    1.0000 </r>
       <r>   -4.8332    1.0000 </r>
       <r>   -1.2220    0.0000 </r>
       <r>    0.1303    0.0000 </r>
       <r>    5.3062    0.0000 </r>
       <r>    5.8276    0.0000 </r>
      </set>
      <set comment="kpoint 217">
       <r>  -18.2282    1.0000 </r>
       <r>  -16.8960    1.0000 </r>
       <r>  -15.7137    1.0000 </r>
       <r>  -14.4141    1.0000 </r>
       <r>   -9.9446    1.0000 </r>
       <r>   -9.1409    1.0000 </r>
       <r>   -5.9396    1.0000 </r>
       <r>   -4.9183    1.0000 </r>
       <r>   -1.2083    0.0000 </r>
       <r>   -0.0845    0.0000 </r>
       <r>    5.0124    0.0000 </r>
       <r>    5.8351    0.0000 </r>
      </set>
      <set comment="kpoint 218">
       <r>  -18.0708    1.0000 </r>
       <r>  -16.9883    1.0000 </r>
       <r>  -15.7438    1.0000 </r>
       <r>  -14.6848    1.0000 </r>
       <r>   -9.6535    1.0000 </r>
       <r>   -9.0269    1.0000 </r>
       <r>   -5.8130    1.0000 </r>
       <r>   -5.0205    1.0000 </r>
       <r>   -1.1636    0.0000 </r>
       <r>   -0.2948    0.0000 </r>
       <r>    4.7944    0.0000 </r>
       <r>    5.4361    0.0000 </r>
      </set>
      <set comment="kpoint 219">
       <r>  -17.8985    1.0000 </r>
       <r>  -17.1401    1.0000 </r>
       <r>  -15.6811    1.0000 </r>
       <r>  -14.9380    1.0000 </r>
       <r>   -9.4040    1.0000 </r>
       <r>   -8.9738    1.0000 </r>
       <r>   -5.6790    1.0000 </r>
       <r>   -5.1375    1.0000 </r>
       <r>   -1.0865    0.0000 </r>
       <r>   -0.4945    0.0000 </r>
       <r>    4.6666    0.0000 </r>
       <r>    5.1076    0.0000 </r>
      </set>
      <set comment="kpoint 220">
       <r>  -17.7135    1.0000 </r>
       <r>  -17.3246    1.0000 </r>
       <r>  -15.5518    1.0000 </r>
       <r>  -15.1703    1.0000 </r>
       <r>   -9.2048    1.0000 </r>
       <r>   -8.9857    1.0000 </r>
       <r>   -5.5408    1.0000 </r>
       <r>   -5.2660    1.0000 </r>
       <r>   -0.9780    0.0000 </r>
       <r>   -0.6781    0.0000 </r>
       <r>    4.6347    0.0000 </r>
       <r>    4.8594    0.0000 </r>
      </set>
      <set comment="kpoint 221">
       <r>  -17.5199    1.0000 </r>
       <r>  -17.5199    1.0000 </r>
       <r>  -15.3773    1.0000 </r>
       <r>  -15.3773    1.0000 </r>
       <r>   -9.0636    1.0000 </r>
       <r>   -9.0636    1.0000 </r>
       <r>   -5.4018    1.0000 </r>
       <r>   -5.4018    1.0000 </r>
       <r>   -0.8407    0.0000 </r>
       <r>   -0.8407    0.0000 </r>
       <r>    4.6998    0.0000 </r>
       <r>    4.6998    0.0000 </r>
      </set>
      <set comment="kpoint 222">
       <r>  -18.4313    1.0000 </r>
       <r>  -17.5635    1.0000 </r>
       <r>  -13.5694    1.0000 </r>
       <r>  -12.7767    1.0000 </r>
       <r>  -12.0167    1.0000 </r>
       <r>  -11.2666    1.0000 </r>
       <r>   -6.0218    1.0000 </r>
       <r>   -5.0988    1.0000 </r>
       <r>   -0.5000    0.0000 </r>
       <r>    0.5516    0.0000 </r>
       <r>    5.6989    0.0000 </r>
       <r>    6.4544    0.0000 </r>
      </set>
      <set comment="kpoint 223">
       <r>  -18.4218    1.0000 </r>
       <r>  -17.5548    1.0000 </r>
       <r>  -13.6599    1.0000 </r>
       <r>  -12.8636    1.0000 </r>
       <r>  -11.9208    1.0000 </r>
       <r>  -11.1790    1.0000 </r>
       <r>   -6.0142    1.0000 </r>
       <r>   -5.0962    1.0000 </r>
       <r>   -0.5169    0.0000 </r>
       <r>    0.5278    0.0000 </r>
       <r>    5.7125    0.0000 </r>
       <r>    6.4714    0.0000 </r>
      </set>
      <set comment="kpoint 224">
       <r>  -18.3931    1.0000 </r>
       <r>  -17.5289    1.0000 </r>
       <r>  -13.8828    1.0000 </r>
       <r>  -13.0800    1.0000 </r>
       <r>  -11.6818    1.0000 </r>
       <r>  -10.9611    1.0000 </r>
       <r>   -5.9918    1.0000 </r>
       <r>   -5.0888    1.0000 </r>
       <r>   -0.5657    0.0000 </r>
       <r>    0.4582    0.0000 </r>
       <r>    5.7533    0.0000 </r>
       <r>    6.5219    0.0000 </r>
      </set>
      <set comment="kpoint 225">
       <r>  -18.3456    1.0000 </r>
       <r>  -17.4862    1.0000 </r>
       <r>  -14.1669    1.0000 </r>
       <r>  -13.3591    1.0000 </r>
       <r>  -11.3722    1.0000 </r>
       <r>  -10.6816    1.0000 </r>
       <r>   -5.9549    1.0000 </r>
       <r>   -5.0777    1.0000 </r>
       <r>   -0.6411    0.0000 </r>
       <r>    0.3483    0.0000 </r>
       <r>    5.8207    0.0000 </r>
       <r>    6.6044    0.0000 </r>
      </set>
      <set comment="kpoint 226">
       <r>  -18.2794    1.0000 </r>
       <r>  -17.4279    1.0000 </r>
       <r>  -14.4715    1.0000 </r>
       <r>  -13.6625    1.0000 </r>
       <r>  -11.0342    1.0000 </r>
       <r>  -10.3816    1.0000 </r>
       <r>   -5.9044    1.0000 </r>
       <r>   -5.0648    1.0000 </r>
       <r>   -0.7351    0.0000 </r>
       <r>    0.2058    0.0000 </r>
       <r>    5.9131    0.0000 </r>
       <r>    6.7170    0.0000 </r>
      </set>
      <set comment="kpoint 227">
       <r>  -18.1949    1.0000 </r>
       <r>  -17.3556    1.0000 </r>
       <r>  -14.7765    1.0000 </r>
       <r>  -13.9719    1.0000 </r>
       <r>  -10.6897    1.0000 </r>
       <r>  -10.0839    1.0000 </r>
       <r>   -5.8414    1.0000 </r>
       <r>   -5.0526    1.0000 </r>
       <r>   -0.8382    0.0000 </r>
       <r>    0.0396    0.0000 </r>
       <r>    6.0188    0.0000 </r>
       <r>    6.4531    0.0000 </r>
      </set>
      <set comment="kpoint 228">
       <r>  -18.0927    1.0000 </r>
       <r>  -17.2724    1.0000 </r>
       <r>  -15.0700    1.0000 </r>
       <r>  -14.2776    1.0000 </r>
       <r>  -10.3527    1.0000 </r>
       <r>   -9.8033    1.0000 </r>
       <r>   -5.7674    1.0000 </r>
       <r>   -5.0442    1.0000 </r>
       <r>   -0.9400    0.0000 </r>
       <r>   -0.1407    0.0000 </r>
       <r>    5.9003    0.0000 </r>
       <r>    6.2433    0.0000 </r>
      </set>
      <set comment="kpoint 229">
       <r>  -17.9737    1.0000 </r>
       <r>  -17.1840    1.0000 </r>
       <r>  -15.3413    1.0000 </r>
       <r>  -14.5736    1.0000 </r>
       <r>  -10.0342    1.0000 </r>
       <r>   -9.5515    1.0000 </r>
       <r>   -5.6845    1.0000 </r>
       <r>   -5.0432    1.0000 </r>
       <r>   -1.0304    0.0000 </r>
       <r>   -0.3261    0.0000 </r>
       <r>    5.5056    0.0000 </r>
       <r>    5.9986    0.0000 </r>
      </set>
      <set comment="kpoint 230">
       <r>  -17.8392    1.0000 </r>
       <r>  -17.1010    1.0000 </r>
       <r>  -15.5771    1.0000 </r>
       <r>  -14.8555    1.0000 </r>
       <r>   -9.7440    1.0000 </r>
       <r>   -9.3393    1.0000 </r>
       <r>   -5.5952    1.0000 </r>
       <r>   -5.0531    1.0000 </r>
       <r>   -1.1003    0.0000 </r>
       <r>   -0.5082    0.0000 </r>
       <r>    5.1588    0.0000 </r>
       <r>    5.5718    0.0000 </r>
      </set>
      <set comment="kpoint 231">
       <r>  -17.6915    1.0000 </r>
       <r>  -17.0425    1.0000 </r>
       <r>  -15.7561    1.0000 </r>
       <r>  -15.1192    1.0000 </r>
       <r>   -9.4919    1.0000 </r>
       <r>   -9.1761    1.0000 </r>
       <r>   -5.5024    1.0000 </r>
       <r>   -5.0767    1.0000 </r>
       <r>   -1.1421    0.0000 </r>
       <r>   -0.6792    0.0000 </r>
       <r>    4.8886    0.0000 </r>
       <r>    5.2112    0.0000 </r>
      </set>
      <set comment="kpoint 232">
       <r>  -17.5341    1.0000 </r>
       <r>  -17.0363    1.0000 </r>
       <r>  -15.8497    1.0000 </r>
       <r>  -15.3596    1.0000 </r>
       <r>   -9.2869    1.0000 </r>
       <r>   -9.0699    1.0000 </r>
       <r>   -5.4097    1.0000 </r>
       <r>   -5.1159    1.0000 </r>
       <r>   -1.1504    0.0000 </r>
       <r>   -0.8319    0.0000 </r>
       <r>    4.7055    0.0000 </r>
       <r>    4.9275    0.0000 </r>
      </set>
      <set comment="kpoint 233">
       <r>  -17.3736    1.0000 </r>
       <r>  -17.1003    1.0000 </r>
       <r>  -15.8390    1.0000 </r>
       <r>  -15.5696    1.0000 </r>
       <r>   -9.1372    1.0000 </r>
       <r>   -9.0267    1.0000 </r>
       <r>   -5.3210    1.0000 </r>
       <r>   -5.1708    1.0000 </r>
       <r>   -1.1225    0.0000 </r>
       <r>   -0.9601    0.0000 </r>
       <r>    4.6165    0.0000 </r>
       <r>    4.7296    0.0000 </r>
      </set>
      <set comment="kpoint 234">
       <r>  -17.2220    1.0000 </r>
       <r>  -17.2220    1.0000 </r>
       <r>  -15.7365    1.0000 </r>
       <r>  -15.7365    1.0000 </r>
       <r>   -9.0493    1.0000 </r>
       <r>   -9.0493    1.0000 </r>
       <r>   -5.2401    1.0000 </r>
       <r>   -5.2401    1.0000 </r>
       <r>   -1.0583    0.0000 </r>
       <r>   -1.0583    0.0000 </r>
       <r>    4.6246    0.0000 </r>
       <r>    4.6246    0.0000 </r>
      </set>
      <set comment="kpoint 235">
       <r>  -18.0048    1.0000 </r>
       <r>  -18.0048    1.0000 </r>
       <r>  -13.1827    1.0000 </r>
       <r>  -13.1827    1.0000 </r>
       <r>  -11.6520    1.0000 </r>
       <r>  -11.6520    1.0000 </r>
       <r>   -5.5639    1.0000 </r>
       <r>   -5.5639    1.0000 </r>
       <r>    0.0153    0.0000 </r>
       <r>    0.0153    0.0000 </r>
       <r>    6.3100    0.0000 </r>
       <r>    6.3100    0.0000 </r>
      </set>
      <set comment="kpoint 236">
       <r>  -17.9955    1.0000 </r>
       <r>  -17.9955    1.0000 </r>
       <r>  -13.2719    1.0000 </r>
       <r>  -13.2719    1.0000 </r>
       <r>  -11.5598    1.0000 </r>
       <r>  -11.5598    1.0000 </r>
       <r>   -5.5583    1.0000 </r>
       <r>   -5.5583    1.0000 </r>
       <r>   -0.0057    0.0000 </r>
       <r>   -0.0057    0.0000 </r>
       <r>    6.3235    0.0000 </r>
       <r>    6.3235    0.0000 </r>
      </set>
      <set comment="kpoint 237">
       <r>  -17.9679    1.0000 </r>
       <r>  -17.9679    1.0000 </r>
       <r>  -13.4926    1.0000 </r>
       <r>  -13.4926    1.0000 </r>
       <r>  -11.3303    1.0000 </r>
       <r>  -11.3303    1.0000 </r>
       <r>   -5.5417    1.0000 </r>
       <r>   -5.5417    1.0000 </r>
       <r>   -0.0668    0.0000 </r>
       <r>   -0.0668    0.0000 </r>
       <r>    6.3640    0.0000 </r>
       <r>    6.3640    0.0000 </r>
      </set>
      <set comment="kpoint 238">
       <r>  -17.9221    1.0000 </r>
       <r>  -17.9221    1.0000 </r>
       <r>  -13.7755    1.0000 </r>
       <r>  -13.7755    1.0000 </r>
       <r>  -11.0345    1.0000 </r>
       <r>  -11.0345    1.0000 </r>
       <r>   -5.5149    1.0000 </r>
       <r>   -5.5149    1.0000 </r>
       <r>   -0.1627    0.0000 </r>
       <r>   -0.1627    0.0000 </r>
       <r>    6.4306    0.0000 </r>
       <r>    6.4306    0.0000 </r>
      </set>
      <set comment="kpoint 239">
       <r>  -17.8585    1.0000 </r>
       <r>  -17.8585    1.0000 </r>
       <r>  -14.0813    1.0000 </r>
       <r>  -14.0813    1.0000 </r>
       <r>  -10.7142    1.0000 </r>
       <r>  -10.7142    1.0000 </r>
       <r>   -5.4791    1.0000 </r>
       <r>   -5.4791    1.0000 </r>
       <r>   -0.2856    0.0000 </r>
       <r>   -0.2856    0.0000 </r>
       <r>    6.5198    0.0000 </r>
       <r>    6.5198    0.0000 </r>
      </set>
      <set comment="kpoint 240">
       <r>  -17.7780    1.0000 </r>
       <r>  -17.7780    1.0000 </r>
       <r>  -14.3910    1.0000 </r>
       <r>  -14.3910    1.0000 </r>
       <r>  -10.3916    1.0000 </r>
       <r>  -10.3916    1.0000 </r>
       <r>   -5.4361    1.0000 </r>
       <r>   -5.4361    1.0000 </r>
       <r>   -0.4263    0.0000 </r>
       <r>   -0.4263    0.0000 </r>
       <r>    6.5723    0.0000 </r>
       <r>    6.5723    0.0000 </r>
      </set>
      <set comment="kpoint 241">
       <r>  -17.6818    1.0000 </r>
       <r>  -17.6818    1.0000 </r>
       <r>  -14.6944    1.0000 </r>
       <r>  -14.6944    1.0000 </r>
       <r>  -10.0812    1.0000 </r>
       <r>  -10.0812    1.0000 </r>
       <r>   -5.3881    1.0000 </r>
       <r>   -5.3881    1.0000 </r>
       <r>   -0.5747    0.0000 </r>
       <r>   -0.5747    0.0000 </r>
       <r>    6.1820    0.0000 </r>
       <r>    6.1820    0.0000 </r>
      </set>
      <set comment="kpoint 242">
       <r>  -17.5718    1.0000 </r>
       <r>  -17.5718    1.0000 </r>
       <r>  -14.9846    1.0000 </r>
       <r>  -14.9846    1.0000 </r>
       <r>   -9.7943    1.0000 </r>
       <r>   -9.7943    1.0000 </r>
       <r>   -5.3382    1.0000 </r>
       <r>   -5.3382    1.0000 </r>
       <r>   -0.7213    0.0000 </r>
       <r>   -0.7213    0.0000 </r>
       <r>    5.7354    0.0000 </r>
       <r>    5.7354    0.0000 </r>
      </set>
      <set comment="kpoint 243">
       <r>  -17.4514    1.0000 </r>
       <r>  -17.4514    1.0000 </r>
       <r>  -15.2552    1.0000 </r>
       <r>  -15.2552    1.0000 </r>
       <r>   -9.5413    1.0000 </r>
       <r>   -9.5413    1.0000 </r>
       <r>   -5.2897    1.0000 </r>
       <r>   -5.2897    1.0000 </r>
       <r>   -0.8566    0.0000 </r>
       <r>   -0.8566    0.0000 </r>
       <r>    5.3457    0.0000 </r>
       <r>    5.3457    0.0000 </r>
      </set>
      <set comment="kpoint 244">
       <r>  -17.3267    1.0000 </r>
       <r>  -17.3267    1.0000 </r>
       <r>  -15.4983    1.0000 </r>
       <r>  -15.4983    1.0000 </r>
       <r>   -9.3319    1.0000 </r>
       <r>   -9.3319    1.0000 </r>
       <r>   -5.2463    1.0000 </r>
       <r>   -5.2463    1.0000 </r>
       <r>   -0.9722    0.0000 </r>
       <r>   -0.9722    0.0000 </r>
       <r>    5.0280    0.0000 </r>
       <r>    5.0280    0.0000 </r>
      </set>
      <set comment="kpoint 245">
       <r>  -17.2089    1.0000 </r>
       <r>  -17.2089    1.0000 </r>
       <r>  -15.7014    1.0000 </r>
       <r>  -15.7014    1.0000 </r>
       <r>   -9.1748    1.0000 </r>
       <r>   -9.1748    1.0000 </r>
       <r>   -5.2118    1.0000 </r>
       <r>   -5.2118    1.0000 </r>
       <r>   -1.0607    0.0000 </r>
       <r>   -1.0607    0.0000 </r>
       <r>    4.7928    0.0000 </r>
       <r>    4.7928    0.0000 </r>
      </set>
      <set comment="kpoint 246">
       <r>  -17.1184    1.0000 </r>
       <r>  -17.1184    1.0000 </r>
       <r>  -15.8433    1.0000 </r>
       <r>  -15.8433    1.0000 </r>
       <r>   -9.0774    1.0000 </r>
       <r>   -9.0774    1.0000 </r>
       <r>   -5.1896    1.0000 </r>
       <r>   -5.1896    1.0000 </r>
       <r>   -1.1164    0.0000 </r>
       <r>   -1.1164    0.0000 </r>
       <r>    4.6483    0.0000 </r>
       <r>    4.6483    0.0000 </r>
      </set>
      <set comment="kpoint 247">
       <r>  -17.0831    1.0000 </r>
       <r>  -17.0831    1.0000 </r>
       <r>  -15.8959    1.0000 </r>
       <r>  -15.8959    1.0000 </r>
       <r>   -9.0444    1.0000 </r>
       <r>   -9.0444    1.0000 </r>
       <r>   -5.1819    1.0000 </r>
       <r>   -5.1819    1.0000 </r>
       <r>   -1.1354    0.0000 </r>
       <r>   -1.1354    0.0000 </r>
       <r>    4.5995    0.0000 </r>
       <r>    4.5995    0.0000 </r>
      </set>
     </set>
    </set>
   </array>
  </eigenvalues>
  <separator name="orbital magnetization" >
   <v name="MAGDIPOLOUT">      0.00000000      0.00000000      0.00000000</v>
  </separator>
 </calculation>
 <structure name="finalpos" >
  <crystal>
   <varray name="basis" >
    <v>       4.26209388       0.00000000       0.00000000 </v>
    <v>       0.00000000       2.50418723       0.00000000 </v>
    <v>       0.00000000       0.00000000      19.75417404 </v>
   </varray>
   <i name="volume">    210.83790140 </i>
   <varray name="rec_basis" >
    <v>       0.23462646       0.00000000       0.00000000 </v>
    <v>       0.00000000       0.39933116       0.00000000 </v>
    <v>       0.00000000       0.00000000       0.05062221 </v>
   </varray>
  </crystal>
  <varray name="positions" >
   <v>       0.00039124      -0.00000000      -0.00000000 </v>
   <v>       0.16627543       0.50000000       0.00000000 </v>
   <v>       0.50039124       0.50000000      -0.00000000 </v>
   <v>       0.66627543      -0.00000000       0.00000000 </v>
  </varray>
 </structure>
</modeling>
