gr                                      
           1
     4.262094    0.000000    0.000000
     0.000000    2.504187    0.000000
     0.000000    0.000000   19.754174
   C 
   4
Direct configuration=     1
   0.00039382  0.00000000  0.00000000
   0.16627284  0.50000000  0.00000000
   0.50039382  0.50000000  0.00000000
   0.66627284  0.00000000  0.00000000
Direct configuration=     2
   0.00038068 -0.00000000 -0.00000000
   0.16628599  0.50000000  0.00000000
   0.50038068  0.50000000 -0.00000000
   0.66628599 -0.00000000  0.00000000
Direct configuration=     3
   0.00039123 -0.00000000 -0.00000000
   0.16627544  0.50000000  0.00000000
   0.50039123  0.50000000 -0.00000000
   0.66627544 -0.00000000  0.00000000
Direct configuration=     4
   0.00039124 -0.00000000 -0.00000000
   0.16627543  0.50000000  0.00000000
   0.50039124  0.50000000 -0.00000000
   0.66627543 -0.00000000  0.00000000
Direct configuration=     5
   0.00039124 -0.00000000 -0.00000000
   0.16627543  0.50000000  0.00000000
   0.50039124  0.50000000 -0.00000000
   0.66627543 -0.00000000  0.00000000
