    4    4  400    1
  0.5270948E+02  0.4401252E-09  0.2455461E-09  0.1950920E-08  0.5000000E-15
  1.000000000000000E-004
  CAR 
 gr                                      
     16    247     12
 
  0.0000000E+00  0.0000000E+00  0.0000000E+00  0.1157407E-02
    1      -22.046333
    2      -17.301224
    3      -15.801799
    4      -10.198906
    5       -8.738637
    6       -6.045665
    7       -5.717992
    8       -5.378349
    9       -1.204673
   10        0.549079
   11        1.346523
   12        1.742193
 
  0.4166667E-01  0.0000000E+00  0.0000000E+00  0.2314815E-02
    1      -22.036669
    2      -17.412387
    3      -15.675711
    4      -10.187455
    5       -8.729336
    6       -6.090252
    7       -5.737581
    8       -5.435594
    9       -1.131781
   10        0.562141
   11        1.359781
   12        1.755619
 
  0.8333333E-01  0.0000000E+00  0.0000000E+00  0.2314815E-02
    1      -22.007684
    2      -17.674439
    3      -15.368963
    4      -10.153124
    5       -8.701483
    6       -6.221830
    7       -5.795345
    8       -5.596036
    9       -0.924553
   10        0.601336
   11        1.399550
   12        1.795900
 
  0.1250000E+00  0.0000000E+00  0.0000000E+00  0.2314815E-02
    1      -21.959398
    2      -17.995644
    3      -14.973511
    4      -10.095969
    5       -8.655229
    6       -6.434277
    7       -5.888421
    8       -5.833548
    9       -0.609582
   10        0.666691
   11        1.465816
   12        1.863042
 
  0.1666667E+00  0.0000000E+00  0.0000000E+00  0.2314815E-02
    1      -21.891846
    2      -18.333465
    3      -14.532273
    4      -10.016089
    5       -8.590834
    6       -6.718678
    7       -6.120601
    8       -6.012501
    9       -0.215187
   10        0.758233
   11        1.558549
   12        1.957048
 
  0.2083333E+00  0.0000000E+00  0.0000000E+00  0.2314815E-02
    1      -21.805080
    2      -18.670766
    3      -14.062932
    4       -9.913627
    5       -8.508672
    6       -7.064687
    7       -6.435385
    8       -6.162376
    9        0.235677
   10        0.875983
   11        1.677704
   12        2.077924
 
  0.2500000E+00  0.0000000E+00  0.0000000E+00  0.2314815E-02
    1      -21.699166
    2      -18.999909
    3      -13.573855
    4       -9.788775
    5       -8.409243
    6       -7.461720
    7       -6.762593
    8       -6.332459
    9        0.726159
   10        1.019945
   11        1.823211
   12        2.225670
 
  0.2916667E+00  0.0000000E+00  0.0000000E+00  0.2314815E-02
    1      -21.574190
    2      -19.317025
    3      -13.069841
    4       -9.641783
    5       -8.293186
    6       -7.899779
    7       -7.091910
    8       -6.517222
    9        1.190108
   10        1.243899
   11        1.994954
   12        2.400287
 
  0.3333333E+00  0.0000000E+00  0.0000000E+00  0.2314815E-02
    1      -21.430258
    2      -19.619925
    3      -12.554243
    4       -9.472967
    5       -8.369889
    6       -8.161301
    7       -7.416382
    8       -6.711485
    9        1.386440
   10        1.779158
   11        2.192738
   12        2.601770
 
  0.3750000E+00  0.0000000E+00  0.0000000E+00  0.2314815E-02
    1      -21.267496
    2      -19.907254
    3      -12.029852
    4       -9.282726
    5       -8.864251
    6       -8.014576
    7       -7.731248
    8       -6.910581
    9        1.608895
   10        2.322817
   11        2.416184
   12        2.830111
 
  0.4166667E+00  0.0000000E+00  0.0000000E+00  0.2314815E-02
    1      -21.086060
    2      -20.178103
    3      -11.499322
    4       -9.376199
    5       -9.071560
    6       -8.033164
    7       -7.854216
    8       -7.110415
    9        1.857408
   10        2.664435
   11        2.861157
   12        3.085336
 
  0.4583333E+00  0.0000000E+00  0.0000000E+00  0.2314815E-02
    1      -20.886138
    2      -20.431830
    3      -10.965417
    4       -9.900098
    5       -8.840100
    6       -8.319721
    7       -7.681678
    8       -7.307460
    9        2.131896
   10        2.758298
   11        2.934923
   12        3.312788
 
  0.5000000E+00  0.0000000E+00  0.0000000E+00  0.1157407E-02
    1      -20.667965
    2      -20.667965
    3      -10.431185
    4      -10.431185
    5       -8.589145
    6       -8.589145
    7       -7.498722
    8       -7.498722
    9        2.432245
   10        2.432245
   11        3.214590
   12        3.214590
 
  0.0000000E+00  0.2777778E-01  0.0000000E+00  0.2314815E-02
    1      -22.032475
    2      -17.289168
    3      -15.789968
    4      -10.182478
    5       -8.802275
    6       -6.070997
    7       -5.777452
    8       -5.361654
    9       -1.206845
   10        0.567847
   11        1.365472
   12        1.761382
 
  0.4166667E-01  0.2777778E-01  0.0000000E+00  0.4629630E-02
    1      -22.022812
    2      -17.400221
    3      -15.664035
    4      -10.171031
    5       -8.792963
    6       -6.116028
    7       -5.796005
    8       -5.419007
    9       -1.133943
   10        0.580909
   11        1.378729
   12        1.774809
 
  0.8333333E-01  0.2777778E-01  0.0000000E+00  0.4629630E-02
    1      -21.993831
    2      -17.662060
    3      -15.357631
    4      -10.136711
    5       -8.765077
    6       -6.248012
    7       -5.851692
    8       -5.579706
    9       -0.926756
   10        0.620105
   11        1.418497
   12        1.815090
 
  0.1250000E+00  0.2777778E-01  0.0000000E+00  0.4629630E-02
    1      -21.945553
    2      -17.983055
    3      -14.962610
    4      -10.079575
    5       -8.718767
    6       -6.459616
    7       -5.943142
    8       -5.817497
    9       -0.612002
   10        0.685460
   11        1.484759
   12        1.882232
 
  0.1666667E+00  0.2777778E-01  0.0000000E+00  0.4629630E-02
    1      -21.878012
    2      -18.320693
    3      -14.521876
    4       -9.999721
    5       -8.654287
    6       -6.741753
    7       -6.104770
    8       -6.066569
    9       -0.218084
   10        0.777003
   11        1.577488
   12        1.976239
 
  0.2083333E+00  0.2777778E-01  0.0000000E+00  0.4629630E-02
    1      -21.791262
    2      -18.657835
    3      -14.053121
    4       -9.897293
    5       -8.572007
    6       -7.084527
    7       -6.419693
    8       -6.216625
    9        0.232022
   10        0.894756
   11        1.696639
   12        2.097115
 
  0.2500000E+00  0.2777778E-01  0.0000000E+00  0.4629630E-02
    1      -21.685367
    2      -18.986840
    3      -13.564727
    4       -9.772483
    5       -8.472418
    6       -7.477884
    7       -6.746968
    8       -6.387428
    9        0.721478
   10        1.038722
   11        1.842142
   12        2.244864
 
  0.2916667E+00  0.2777778E-01  0.0000000E+00  0.4629630E-02
    1      -21.560414
    2      -19.303837
    3      -13.061514
    4       -9.625540
    5       -8.356152
    6       -7.912224
    7       -7.076296
    8       -6.573192
    9        1.208890
   10        1.237958
   11        2.013882
   12        2.419483
 
  0.3333333E+00  0.2777778E-01  0.0000000E+00  0.4629630E-02
    1      -21.416509
    2      -19.606634
    3      -12.546856
    4       -9.456779
    5       -8.378817
    6       -8.223999
    7       -7.400742
    8       -6.768551
    9        1.405228
   10        1.771790
   11        2.211665
   12        2.620969
 
  0.3750000E+00  0.2777778E-01  0.0000000E+00  0.4629630E-02
    1      -21.253779
    2      -19.893874
    3      -12.023571
    4       -9.266601
    5       -8.869986
    6       -8.076935
    7       -7.715557
    8       -6.968725
    9        1.627691
   10        2.314021
   11        2.435118
   12        2.849314
 
  0.4166667E+00  0.2777778E-01  0.0000000E+00  0.4629630E-02
    1      -21.072380
    2      -20.164645
    3      -11.494343
    4       -9.379113
    5       -9.055503
    6       -8.017406
    7       -7.916149
    8       -7.169553
    9        1.876214
   10        2.683386
   11        2.851679
   12        3.104507
 
  0.4583333E+00  0.2777778E-01  0.0000000E+00  0.4629630E-02
    1      -20.872502
    2      -20.418305
    3      -10.961971
    4       -9.900560
    5       -8.824116
    6       -8.303889
    7       -7.743088
    8       -7.367479
    9        2.150712
   10        2.777153
   11        2.953874
   12        3.312819
 
  0.5000000E+00  0.2777778E-01  0.0000000E+00  0.2314815E-02
    1      -20.654380
    2      -20.654380
    3      -10.429539
    4      -10.429539
    5       -8.573237
    6       -8.573237
    7       -7.559497
    8       -7.559497
    9        2.451076
   10        2.451076
   11        3.232970
   12        3.232970
 
  0.0000000E+00  0.5555556E-01  0.0000000E+00  0.2314815E-02
    1      -21.990909
    2      -17.253006
    3      -15.754616
    4      -10.133230
    5       -8.988017
    6       -6.146662
    7       -5.950911
    8       -5.311590
    9       -1.214159
   10        0.624152
   11        1.422312
   12        1.818952
 
  0.4166667E-01  0.5555556E-01  0.0000000E+00  0.4629630E-02
    1      -21.981251
    2      -17.363731
    3      -15.629143
    4      -10.121795
    5       -8.978669
    6       -6.194945
    7       -5.964466
    8       -5.369277
    9       -1.141226
   10        0.637213
   11        1.435568
   12        1.832378
 
  0.8333333E-01  0.5555556E-01  0.0000000E+00  0.4629630E-02
    1      -21.952284
    2      -17.624935
    3      -15.323774
    4      -10.087509
    5       -8.950672
    6       -6.330540
    7       -6.011607
    8       -5.530766
    9       -0.934156
   10        0.676408
   11        1.475329
   12        1.872660
 
  0.1250000E+00  0.5555556E-01  0.0000000E+00  0.4629630E-02
    1      -21.904030
    2      -17.945307
    3      -14.930059
    4      -10.030431
    5       -8.904169
    6       -6.540489
    7       -6.097390
    8       -5.769413
    9       -0.620064
   10        0.741762
   11        1.541582
   12        1.939802
 
  0.1666667E+00  0.5555556E-01  0.0000000E+00  0.4629630E-02
    1      -21.836523
    2      -18.282393
    3      -14.490858
    4       -9.950658
    5       -8.839404
    6       -6.815784
    7       -6.218963
    8       -6.057359
    9       -0.227603
   10        0.833306
   11        1.634298
   12        2.033810
 
  0.2083333E+00  0.5555556E-01  0.0000000E+00  0.4629630E-02
    1      -21.749818
    2      -18.619058
    3      -14.023893
    4       -9.848333
    5       -8.756727
    6       -7.148409
    7       -6.372705
    8       -6.370040
    9        0.220182
   10        0.951062
   11        1.753434
   12        2.154689
 
  0.2500000E+00  0.5555556E-01  0.0000000E+00  0.4629630E-02
    1      -21.643979
    2      -18.947649
    3      -13.537594
    4       -9.723649
    5       -8.656607
    6       -7.530140
    7       -6.700180
    8       -6.543607
    9        0.706498
   10        1.095036
   11        1.898922
   12        2.302441
 
  0.2916667E+00  0.5555556E-01  0.0000000E+00  0.4629630E-02
    1      -21.519096
    2      -19.264289
    3      -13.036840
    4       -9.576854
    5       -8.539646
    6       -7.952697
    7       -7.029540
    8       -6.732978
    9        1.219119
   10        1.265215
   11        2.070652
   12        2.477066
 
  0.3333333E+00  0.5555556E-01  0.0000000E+00  0.4629630E-02
    1      -21.375272
    2      -19.566776
    3      -12.525079
    4       -9.408263
    5       -8.408152
    6       -8.406603
    7       -7.353902
    8       -6.932182
    9        1.461568
   10        1.748555
   11        2.268436
   12        2.678559
 
  0.3750000E+00  0.5555556E-01  0.0000000E+00  0.4629630E-02
    1      -21.212640
    2      -19.853746
    3      -12.005211
    4       -9.218275
    5       -8.889233
    6       -8.258411
    7       -7.668558
    8       -7.136068
    9        1.684047
   10        2.286304
   11        2.491910
   12        2.906914
 
  0.4166667E+00  0.5555556E-01  0.0000000E+00  0.4629630E-02
    1      -21.031354
    2      -20.124284
    3      -11.480017
    4       -9.389468
    5       -9.007385
    6       -8.096217
    7       -7.970203
    8       -7.340276
    9        1.932588
   10        2.740228
   11        2.821278
   12        3.162123
 
  0.4583333E+00  0.5555556E-01  0.0000000E+00  0.4629630E-02
    1      -20.831608
    2      -20.377740
    3      -10.952409
    4       -9.903214
    5       -8.776220
    6       -8.256459
    7       -7.921418
    8       -7.541166
    9        2.207109
   10        2.833627
   11        3.010721
   12        3.304545
 
  0.5000000E+00  0.5555556E-01  0.0000000E+00  0.2314815E-02
    1      -20.613639
    2      -20.613639
    3      -10.425594
    4      -10.425594
    5       -8.525572
    6       -8.525572
    7       -7.735713
    8       -7.735713
    9        2.507502
   10        2.507502
   11        3.287739
   12        3.287739
 
  0.0000000E+00  0.8333333E-01  0.0000000E+00  0.2314815E-02
    1      -21.921671
    2      -17.192748
    3      -15.696181
    4      -10.051268
    5       -9.281813
    6       -6.271646
    7       -6.225161
    8       -5.228223
    9       -1.229019
   10        0.717989
   11        1.517021
   12        1.914902
 
  0.4166667E-01  0.8333333E-01  0.0000000E+00  0.4629630E-02
    1      -21.912021
    2      -17.302943
    3      -15.571469
    4      -10.039853
    5       -9.272391
    6       -6.343102
    7       -6.212726
    8       -5.286500
    9       -1.156018
   10        0.731048
   11        1.530272
   12        1.928328
 
  0.8333333E-01  0.8333333E-01  0.0000000E+00  0.4629630E-02
    1      -21.883078
    2      -17.563111
    3      -15.267836
    4      -10.005627
    5       -9.244168
    6       -6.490632
    7       -6.239952
    8       -5.449376
    9       -0.949129
   10        0.770237
   11        1.570023
   12        1.968609
 
  0.1250000E+00  0.8333333E-01  0.0000000E+00  0.4629630E-02
    1      -21.834863
    2      -17.882451
    3      -14.876344
    4       -9.948647
    5       -9.197274
    6       -6.697268
    7       -6.317138
    8       -5.689514
    9       -0.636163
   10        0.835584
   11        1.636257
   12        2.035750
 
  0.1666667E+00  0.8333333E-01  0.0000000E+00  0.4629630E-02
    1      -21.767415
    2      -18.218620
    3      -14.439780
    4       -9.869013
    5       -9.131927
    6       -6.959289
    7       -6.437728
    8       -5.978621
    9       -0.246217
   10        0.927121
   11        1.728949
   12        2.129758
 
  0.2083333E+00  0.8333333E-01  0.0000000E+00  0.4629630E-02
    1      -21.680783
    2      -18.554487
    3      -13.975915
    4       -9.766866
    5       -9.048447
    6       -7.272664
    7       -6.592965
    8       -6.294688
    9        0.197559
   10        1.044872
   11        1.848057
   12        2.250638
 
  0.2500000E+00  0.8333333E-01  0.0000000E+00  0.4629630E-02
    1      -21.575040
    2      -18.882389
    3      -13.493269
    4       -9.642398
    5       -8.947255
    6       -7.632421
    7       -6.773751
    8       -6.622499
    9        0.678443
   10        1.188845
   11        1.993517
   12        2.398393
 
  0.2916667E+00  0.8333333E-01  0.0000000E+00  0.4629630E-02
    1      -21.450272
    2      -19.198429
    3      -12.996831
    4       -9.495858
    5       -8.828900
    6       -8.032714
    7       -6.971703
    8       -6.951903
    9        1.184373
   10        1.359028
   11        2.165226
   12        2.573024
 
  0.3333333E+00  0.8333333E-01  0.0000000E+00  0.4629630E-02
    1      -21.306585
    2      -19.500397
    3      -12.490183
    4       -9.327560
    5       -8.694067
    6       -8.467169
    7       -7.276110
    8       -7.179653
    9        1.555388
   10        1.706131
   11        2.363006
   12        2.774527
 
  0.3750000E+00  0.8333333E-01  0.0000000E+00  0.4629630E-02
    1      -21.144114
    2      -19.786915
    3      -11.976385
    4       -9.137897
    5       -8.929322
    6       -8.543606
    7       -7.590483
    8       -7.391732
    9        1.777877
   10        2.235814
   11        2.586516
   12        3.002894
 
  0.4166667E+00  0.8333333E-01  0.0000000E+00  0.4629630E-02
    1      -20.963018
    2      -20.057061
    3      -11.458410
    4       -9.412990
    5       -8.927365
    6       -8.378567
    7       -7.891771
    8       -7.603229
    9        2.026428
   10        2.764553
   11        2.834931
   12        3.258124
 
  0.4583333E+00  0.8333333E-01  0.0000000E+00  0.4629630E-02
    1      -20.763492
    2      -20.310177
    3      -10.939391
    4       -9.912500
    5       -8.696584
    6       -8.200234
    7       -8.177632
    8       -7.810383
    9        2.300959
   10        2.927513
   11        3.105438
   12        3.266704
 
  0.5000000E+00  0.8333333E-01  0.0000000E+00  0.2314815E-02
    1      -20.545780
    2      -20.545780
    3      -10.422785
    4      -10.422785
    5       -8.446338
    6       -8.446338
    7       -8.010190
    8       -8.010190
    9        2.601365
   10        2.601365
   11        3.376972
   12        3.376972
 
  0.0000000E+00  0.1111111E+00  0.0000000E+00  0.2314815E-02
    1      -21.824820
    2      -17.108417
    3      -15.615484
    4       -9.936775
    5       -9.664214
    6       -6.582295
    7       -6.444199
    8       -5.111665
    9       -1.255436
   10        0.849352
   11        1.649558
   12        2.049233
 
  0.4166667E-01  0.1111111E+00  0.0000000E+00  0.4629630E-02
    1      -21.815181
    2      -17.217904
    3      -15.491828
    4       -9.925389
    5       -9.654659
    6       -6.638397
    7       -6.443384
    8       -5.170841
    9       -1.182303
   10        0.862407
   11        1.662803
   12        2.062659
 
  0.8333333E-01  0.1111111E+00  0.0000000E+00  0.4629630E-02
    1      -21.786272
    2      -17.476664
    3      -15.190662
    4       -9.891249
    5       -9.626029
    6       -6.774929
    7       -6.470965
    8       -5.335820
    9       -0.975612
   10        0.901583
   11        1.702535
   12        2.102937
 
  0.1250000E+00  0.1111111E+00  0.0000000E+00  0.4629630E-02
    1      -21.738114
    2      -17.794578
    3      -14.802398
    4       -9.834414
    5       -9.578429
    6       -6.967047
    7       -6.546629
    8       -5.578192
    9       -0.664257
   10        0.966908
   11        1.768739
   12        2.170074
 
  0.1666667E+00  0.1111111E+00  0.0000000E+00  0.4629630E-02
    1      -21.670745
    2      -18.129467
    3      -14.369725
    4       -9.754982
    5       -9.512037
    6       -7.206691
    7       -6.670172
    8       -5.869013
    9       -0.277990
   10        1.058420
   11        1.861390
   12        2.264078
 
  0.2083333E+00  0.1111111E+00  0.0000000E+00  0.4629630E-02
    1      -21.584220
    2      -18.464215
    3      -13.910496
    4       -9.653096
    5       -9.427110
    6       -7.490093
    7       -6.834580
    8       -6.186125
    9        0.159893
   10        1.176145
   11        1.980450
   12        2.384956
 
  0.2500000E+00  0.1111111E+00  0.0000000E+00  0.4629630E-02
    1      -21.478610
    2      -18.791143
    3      -13.433370
    4       -9.528946
    5       -9.323988
    6       -7.814812
    7       -7.029844
    8       -6.514402
    9        0.632789
   10        1.320095
   11        2.125860
   12        2.532712
 
  0.2916667E+00  0.1111111E+00  0.0000000E+00  0.4629630E-02
    1      -21.354002
    2      -19.106339
    3      -12.943524
    4       -9.382779
    5       -9.203109
    6       -8.178369
    7       -7.245299
    8       -6.843845
    9        1.128864
   10        1.490260
   11        2.297526
   12        2.707346
 
  0.3333333E+00  0.1111111E+00  0.0000000E+00  0.4629630E-02
    1      -21.210509
    2      -19.407573
    3      -12.444773
    4       -9.214910
    5       -9.065019
    6       -8.577379
    7       -7.471361
    8       -7.167802
    9        1.639235
   10        1.686606
   11        2.495293
   12        2.908854
 
  0.3750000E+00  0.1111111E+00  0.0000000E+00  0.4629630E-02
    1      -21.048265
    2      -19.693455
    3      -11.940467
    4       -9.025728
    5       -9.007326
    6       -8.910393
    7       -7.700410
    8       -7.481741
    9        1.909080
   10        2.156609
   11        2.718852
   12        3.137232
 
  0.4166667E+00  0.1111111E+00  0.0000000E+00  0.4629630E-02
    1      -20.867435
    2      -19.963048
    3      -11.433929
    4       -9.462893
    5       -8.815723
    6       -8.740063
    7       -7.926813
    8       -7.782488
    9        2.157613
   10        2.673951
   11        2.967433
   12        3.392596
 
  0.4583333E+00  0.1111111E+00  0.0000000E+00  0.4629630E-02
    1      -20.668221
    2      -20.215685
    3      -10.928711
    4       -9.938500
    5       -8.585509
    6       -8.555059
    7       -8.146537
    8       -8.067758
    9        2.432119
   10        3.058596
   11        3.179566
   12        3.237977
 
  0.5000000E+00  0.1111111E+00  0.0000000E+00  0.2314815E-02
    1      -20.450869
    2      -20.450869
    3      -10.428758
    4      -10.428758
    5       -8.356670
    6       -8.356670
    7       -8.335859
    8       -8.335859
    9        2.732490
   10        2.732490
   11        3.489105
   12        3.489107
 
  0.0000000E+00  0.1388889E+00  0.0000000E+00  0.2314815E-02
    1      -21.700443
    2      -17.000043
    3      -15.513911
    4      -10.113939
    5       -9.790013
    6       -7.003437
    7       -6.661791
    8       -4.962076
    9       -1.298979
   10        1.018226
   11        1.819862
   12        2.221946
 
  0.4166667E-01  0.1388889E+00  0.0000000E+00  0.4629630E-02
    1      -21.690818
    2      -17.108684
    3      -15.391603
    4      -10.104156
    5       -9.778666
    6       -7.049125
    7       -6.666926
    8       -5.022557
    9       -1.225583
   10        1.031273
   11        1.833098
   12        2.235370
 
  0.8333333E-01  0.1388889E+00  0.0000000E+00  0.4629630E-02
    1      -21.661951
    2      -17.365714
    3      -15.093692
    4      -10.074825
    5       -9.744645
    6       -7.171965
    7       -6.695400
    8       -5.190553
    9       -1.019007
   10        1.070426
   11        1.872799
   12        2.275643
 
  0.1250000E+00  0.1388889E+00  0.0000000E+00  0.4629630E-02
    1      -21.613867
    2      -17.681830
    3      -14.709837
    4      -10.026008
    5       -9.688007
    6       -7.350260
    7       -6.765378
    8       -5.436071
    9       -0.709728
   10        1.135712
   11        1.938954
   12        2.342773
 
  0.1666667E+00  0.1388889E+00  0.0000000E+00  0.4629630E-02
    1      -21.546603
    2      -18.015079
    3      -14.282610
    4       -9.957805
    5       -9.608851
    6       -7.570495
    7       -6.884360
    8       -5.729253
    9       -0.328413
   10        1.227171
   11        2.031538
   12        2.436767
 
  0.2083333E+00  0.1388889E+00  0.0000000E+00  0.4629630E-02
    1      -21.460214
    2      -18.348379
    3      -13.829991
    4       -9.870355
    5       -9.507320
    6       -7.825524
    7       -7.051069
    8       -6.047765
    9        0.101478
   10        1.344838
   11        2.150515
   12        2.557635
 
  0.2500000E+00  0.1388889E+00  0.0000000E+00  0.4629630E-02
    1      -21.354774
    2      -18.674045
    3      -13.360875
    4       -9.763836
    5       -9.383604
    6       -8.112071
    7       -7.258361
    8       -6.376631
    9        0.563537
   10        1.488730
   11        2.295835
   12        2.705383
 
  0.2916667E+00  0.1388889E+00  0.0000000E+00  0.4629630E-02
    1      -21.230374
    2      -18.988142
    3      -12.880764
    4       -9.638463
    5       -9.237950
    6       -8.429373
    7       -7.495313
    8       -6.706076
    9        1.046251
   10        1.658840
   11        2.467416
   12        2.880014
 
  0.3333333E+00  0.1388889E+00  0.0000000E+00  0.4629630E-02
    1      -21.087131
    2      -19.288422
    3      -12.393899
    4       -9.494483
    5       -9.070667
    6       -8.777881
    7       -7.749364
    8       -7.029643
    9        1.541131
   10        1.855134
   11        2.665133
   12        3.081524
 
  0.3750000E+00  0.1388889E+00  0.0000000E+00  0.4629630E-02
    1      -20.925182
    2      -19.573474
    3      -11.904171
    4       -9.332183
    5       -9.157687
    6       -8.882146
    7       -8.008638
    8       -7.342948
    9        2.041448
   10        2.077556
   11        2.888741
   12        3.309906
 
  0.4166667E+00  0.1388889E+00  0.0000000E+00  0.4629630E-02
    1      -20.744698
    2      -19.842348
    3      -11.415587
    4       -9.567230
    5       -9.151897
    6       -8.672868
    7       -8.263761
    8       -7.642925
    9        2.326030
   10        2.541370
   11        3.137594
   12        3.565277
 
  0.4583333E+00  0.1388889E+00  0.0000000E+00  0.4629630E-02
    1      -20.545888
    2      -20.094361
    3      -10.932527
    4      -10.002945
    5       -8.954045
    6       -8.508498
    7       -8.443438
    8       -7.927361
    9        2.600460
   10        3.034762
   11        3.226710
   12        3.408209
 
  0.5000000E+00  0.1388889E+00  0.0000000E+00  0.2314815E-02
    1      -20.329005
    2      -20.329005
    3      -10.459870
    4      -10.459870
    5       -8.739236
    6       -8.739236
    7       -8.194615
    8       -8.194615
    9        2.900733
   10        2.900733
   11        3.499351
   12        3.499351
 
  0.0000000E+00  0.1666667E+00  0.0000000E+00  0.2314815E-02
    1      -21.548652
    2      -16.867667
    3      -15.393764
    4      -10.610174
    5       -9.611333
    6       -7.471214
    7       -6.921104
    8       -4.779664
    9       -1.366580
   10        1.224588
   11        2.027850
   12        2.433040
 
  0.4166667E-01  0.1666667E+00  0.0000000E+00  0.4629630E-02
    1      -21.539046
    2      -16.975384
    3      -15.273105
    4      -10.599998
    5       -9.600038
    6       -7.514828
    7       -6.923341
    8       -4.842018
    9       -1.292663
   10        1.237623
   11        2.041068
   12        2.446461
 
  0.8333333E-01  0.1666667E+00  0.0000000E+00  0.4629630E-02
    1      -21.510233
    2      -17.230437
    3      -14.979378
    4      -10.569464
    5       -9.566173
    6       -7.633913
    7       -6.941215
    8       -5.014270
    9       -1.085884
   10        1.276740
   11        2.080720
   12        2.486727
 
  0.1250000E+00  0.1666667E+00  0.0000000E+00  0.4629630E-02
    1      -21.462238
    2      -17.544412
    3      -14.601472
    4      -10.518541
    5       -9.509794
    6       -7.807278
    7       -6.993962
    8       -5.264108
    9       -0.779031
   10        1.341966
   11        2.146792
   12        2.553843
 
  0.1666667E+00  0.1666667E+00  0.0000000E+00  0.4629630E-02
    1      -21.395101
    2      -17.875663
    3      -14.181847
    4      -10.447173
    5       -9.431003
    6       -8.018769
    7       -7.094002
    8       -5.560434
    9       -0.403991
   10        1.433341
   11        2.239260
   12        2.647819
 
  0.2083333E+00  0.1666667E+00  0.0000000E+00  0.4629630E-02
    1      -21.308879
    2      -18.207179
    3      -13.738717
    4      -10.355256
    5       -9.329940
    6       -8.258350
    7       -7.245486
    8       -5.880731
    9        0.015639
   10        1.550906
   11        2.358091
   12        2.768665
 
  0.2500000E+00  0.1666667E+00  0.0000000E+00  0.4629630E-02
    1      -21.203649
    2      -18.531279
    3      -13.281411
    4      -10.242613
    5       -9.206797
    6       -8.520225
    7       -7.446141
    8       -6.210280
    9        0.463792
   10        1.694689
   11        2.503236
   12        2.916392
 
  0.2916667E+00  0.1666667E+00  0.0000000E+00  0.4629630E-02
    1      -21.079506
    2      -18.844011
    3      -12.816057
    4      -10.108961
    5       -9.061820
    6       -8.801729
    7       -7.688779
    8       -6.539629
    9        0.929425
   10        1.864691
   11        2.674630
   12        3.091007
 
  0.3333333E+00  0.1666667E+00  0.0000000E+00  0.4629630E-02
    1      -20.936570
    2      -19.143104
    3      -12.347739
    4       -9.953867
    5       -9.102821
    6       -8.895317
    7       -7.962519
    8       -6.862593
    9        1.404550
   10        2.060882
   11        2.872180
   12        3.292508
 
  0.3750000E+00  0.1666667E+00  0.0000000E+00  0.4629630E-02
    1      -20.774984
    2      -19.427126
    3      -11.881449
    4       -9.776716
    5       -9.425583
    6       -8.707674
    7       -8.254085
    8       -7.174989
    9        1.883008
   10        2.283202
   11        3.095743
   12        3.520889
 
  0.4166667E+00  0.1666667E+00  0.0000000E+00  0.4629630E-02
    1      -20.594930
    2      -19.695105
    3      -11.422542
    4       -9.773176
    5       -9.576732
    6       -8.549525
    7       -8.499368
    8       -7.473890
    9        2.359741
   10        2.531564
   11        3.344979
   12        3.776287
 
  0.4583333E+00  0.1666667E+00  0.0000000E+00  0.4629630E-02
    1      -20.396620
    2      -19.946344
    3      -10.976840
    4      -10.148077
    5       -9.353173
    6       -8.836420
    7       -8.270990
    8       -7.757180
    9        2.805861
   10        2.830331
   11        3.431720
   12        3.614630
 
  0.5000000E+00  0.1666667E+00  0.0000000E+00  0.2314815E-02
    1      -20.180317
    2      -20.180317
    3      -10.550300
    4      -10.550300
    5       -9.105885
    6       -9.105885
    7       -8.023281
    8       -8.023281
    9        3.105965
   10        3.105965
   11        3.290452
   12        3.290452
 