 running on    8 total cores
 distrk:  each k-point on    8 cores,    1 groups
 distr:  one band on    2 cores,    4 groups
 using from now: INCAR     
 vasp.5.3.5 31Mar14 (build Mar 02 2015 18:14:16) complex                        
  
 POSCAR found type information on POSCAR  C 
 POSCAR found :  1 types and       4 ions
 LDA part: xc-table for Pade appr. of Perdew
 POSCAR, INCAR and KPOINTS ok, starting setup
 WARNING: small aliasing (wrap around) errors must be expected
 FFT: planning ...
 WAVECAR not read
 entering main loop
       N       E                     dE             d eps       ncg     rms          rms(c)
DAV:   1     0.186236163043E+03    0.18624E+03   -0.10613E+04  5928   0.275E+03
DAV:   2    -0.909675242495E+01   -0.19533E+03   -0.17272E+03 10396   0.260E+02
DAV:   3    -0.380316462874E+02   -0.28935E+02   -0.28229E+02  7404   0.118E+02    0.703E+00
RMM:   4    -0.375319016682E+02    0.49974E+00   -0.94207E+00  5928   0.263E+01    0.408E+00
RMM:   5    -0.368383982799E+02    0.69350E+00   -0.25954E+00  5931   0.110E+01    0.692E-01
RMM:   6    -0.368402809380E+02   -0.18827E-02   -0.81024E-02  6384   0.201E+00    0.495E-01
RMM:   7    -0.368316463066E+02    0.86346E-02   -0.30847E-02  5945   0.152E+00    0.320E-01
RMM:   8    -0.368270999861E+02    0.45463E-02   -0.56417E-03  5931   0.499E-01    0.140E-01
RMM:   9    -0.368268292205E+02    0.27077E-03   -0.19776E-02  5928   0.833E-01    0.148E-01
RMM:  10    -0.368267268419E+02    0.10238E-03   -0.17687E-03  5929   0.306E-01    0.263E-02
RMM:  11    -0.368289264716E+02   -0.21996E-02   -0.75408E-04  5930   0.187E-01    0.417E-02
RMM:  12    -0.368294386976E+02   -0.51223E-03   -0.19527E-04  5949   0.932E-02    0.507E-03
RMM:  13    -0.368297116012E+02   -0.27290E-03   -0.46776E-05  6057   0.337E-02    0.240E-03
RMM:  14    -0.368297954864E+02   -0.83885E-04   -0.10721E-05  6028   0.133E-02    0.925E-04
RMM:  15    -0.368298103772E+02   -0.14891E-04   -0.20482E-06  5939   0.771E-03    0.267E-03
RMM:  16    -0.368298242277E+02   -0.13850E-04   -0.26866E-06  5928   0.109E-02    0.160E-03
RMM:  17    -0.368298304482E+02   -0.62206E-05   -0.32944E-07  5928   0.354E-03    0.354E-04
RMM:  18    -0.368298315944E+02   -0.11462E-05   -0.18198E-08  6009   0.112E-03    0.794E-05
WARNING in EDDRMM: call to ZHEGV failed, returncode =   6  3  1
WARNING in EDDRMM: call to ZHEGV failed, returncode =   6  3  1
WARNING in EDDRMM: call to ZHEGV failed, returncode =   6  3  1
RMM:  19    -0.368298323102E+02   -0.71574E-06   -0.96349E-09  5021   0.396E-04    0.129E-05
RMM:  20    -0.368298323441E+02   -0.33945E-07   -0.50664E-10  4552   0.120E-04    0.185E-05
RMM:  21    -0.368298323544E+02   -0.10318E-07   -0.16396E-10  4283   0.781E-05    0.738E-06
WARNING in EDDRMM: call to ZHEGV failed, returncode =   6  3  1
RMM:  22    -0.368298323543E+02    0.86629E-10   -0.18959E-11  3871   0.492E-05
   1 F= -.36829832E+02 E0= -.36829832E+02  d E =-.368298E+02
 BRION: g(F)=  0.125E-06 g(S)=  0.000E+00
 bond charge predicted
       N       E                     dE             d eps       ncg     rms          rms(c)
DAV:   1    -0.368298321881E+02    0.16627E-06   -0.16588E-05  6524   0.381E-02    0.753E-04
RMM:   2    -0.368298322051E+02   -0.16924E-07   -0.26555E-07  5972   0.453E-03    0.548E-04
RMM:   3    -0.368298322048E+02    0.25636E-09   -0.44454E-08  5981   0.169E-03    0.149E-04
RMM:   4    -0.368298322026E+02    0.21845E-08   -0.31300E-09  6046   0.440E-04    0.428E-05
RMM:   5    -0.368298322033E+02   -0.71554E-09   -0.20160E-10  4057   0.107E-04    0.174E-05
RMM:   6    -0.368298322033E+02    0.83674E-10   -0.25718E-11  3746   0.574E-05
   2 F= -.36829832E+02 E0= -.36829832E+02  d E =0.151068E-06
 BRION: g(F)=  0.161E-05 g(S)=  0.000E+00 retain N=  1 mean eig= 0.22
 eig:   0.218
 bond charge predicted
       N       E                     dE             d eps       ncg     rms          rms(c)
DAV:   1    -0.368298323768E+02   -0.17344E-06   -0.10137E-05  6824   0.298E-02    0.595E-04
RMM:   2    -0.368298323798E+02   -0.29945E-08   -0.15728E-07  5969   0.354E-03    0.429E-04
WARNING in EDDRMM: call to ZHEGV failed, returncode =   6  3  1
RMM:   3    -0.368298323709E+02    0.88805E-08   -0.26935E-08  5974   0.132E-03    0.112E-04
RMM:   4    -0.368298323714E+02   -0.50659E-09   -0.18159E-09  5996   0.340E-04    0.332E-05
RMM:   5    -0.368298323710E+02    0.39267E-09   -0.11467E-10  3906   0.855E-05    0.135E-05
RMM:   6    -0.368298323710E+02   -0.14097E-10   -0.17582E-11  3586   0.518E-05
   3 F= -.36829832E+02 E0= -.36829832E+02  d E =-.167763E-06
 BRION: g(F)=  0.500E-11 g(S)=  0.000E+00 retain N=  1 mean eig= 0.22
 eig:   0.219
 bond charge predicted
       N       E                     dE             d eps       ncg     rms          rms(c)
DAV:   1    -0.368298323705E+02    0.51637E-09    0.52716E-09  4864   0.615E-05    0.138E-06
RMM:   2    -0.368298323710E+02   -0.54956E-09    0.15163E-12  2302   0.218E-05    0.862E-07
RMM:   3    -0.368298323710E+02   -0.15916E-11   -0.20669E-12  2172   0.220E-05    0.952E-08
RMM:   4    -0.368298323711E+02   -0.12733E-10   -0.11336E-12  2029   0.208E-05    0.601E-08
RMM:   5    -0.368298323711E+02   -0.90949E-12   -0.70250E-13  1910   0.198E-05
   4 F= -.36829832E+02 E0= -.36829832E+02  d E =-.343334E-10
 BRION: g(F)=  0.106E-10 g(S)=  0.000E+00 retain N=  1 mean eig= 0.09
 eig:   0.089
 bond charge predicted
       N       E                     dE             d eps       ncg     rms          rms(c)
DAV:   1    -0.368298323705E+02    0.56707E-09    0.53019E-09  4560   0.323E-05    0.271E-07
RMM:   2    -0.368298323710E+02   -0.51432E-09    0.22024E-13  1375   0.105E-05    0.166E-07
RMM:   3    -0.368298323710E+02    0.21373E-10   -0.94533E-14  1351   0.105E-05    0.155E-08
RMM:   4    -0.368298323710E+02   -0.63665E-11   -0.10527E-13  1333   0.105E-05    0.106E-08
RMM:   5    -0.368298323710E+02    0.10232E-10   -0.28948E-14  1337   0.105E-05
   5 F= -.36829832E+02 E0= -.36829832E+02  d E =0.788987E-10
 BRION: g(F)=  0.855E-14 g(S)=  0.000E+00 retain N=  1 mean eig= 0.09
 eig:   0.086
 reached required accuracy - stopping structural energy minimisation
