<?xml version="1.0" encoding="ISO-8859-1"?>
<modeling>
 <generator>
  <i name="program" type="string">vasp </i>
  <i name="version" type="string">5.3.5  </i>
  <i name="subversion" type="string">31Mar14 (build Mar 02 2015 18:14:16) complex                          parallel </i>
  <i name="platform" type="string">LinuxIFC </i>
  <i name="date" type="string">2018 08 10 </i>
  <i name="time" type="string">14:33:04 </i>
 </generator>
 <incar>
  <i type="string" name="SYSTEM">  gr</i>
  <i type="string" name="PREC">accurate : accuracy</i>
  <i type="string" name="ALGO"> FAST.</i>
  <i type="int" name="NELM">   100</i>
  <i type="int" name="NELMDL">    -3</i>
  <i type="int" name="NELMIN">     5</i>
  <i type="int" name="IBRION">     1</i>
  <i name="EDIFF">      0.00000000</i>
  <i name="EDIFFG">     -0.00000100</i>
  <i type="int" name="NSW">   400</i>
  <i type="int" name="ISIF">     2</i>
  <i name="ENCUT">   2000.00000000</i>
  <i type="int" name="ISMEAR">     0</i>
  <i name="SIGMA">      0.05000000</i>
  <i type="int" name="NWRITE">     2</i>
  <i type="logical" name="LWAVE"> F  </i>
  <i type="logical" name="LCHARG"> F  </i>
  <i type="int" name="NELM">   100</i>
 </incar>
 <kpoints>
  <generation param="Gamma">
   <v type="int" name="divisions">      24       36        1 </v>
   <v name="usershift">      0.00000000       0.00000000       0.00000000 </v>
   <v name="genvec1">      0.04166667       0.00000000       0.00000000 </v>
   <v name="genvec2">      0.00000000       0.02777778       0.00000000 </v>
   <v name="genvec3">      0.00000000       0.00000000       1.00000000 </v>
   <v name="shift">      0.00000000       0.00000000       0.00000000 </v>
  </generation>
  <varray name="kpointlist" >
   <v>       0.00000000       0.00000000       0.00000000 </v>
   <v>       0.04166667       0.00000000       0.00000000 </v>
   <v>       0.08333333       0.00000000       0.00000000 </v>
   <v>       0.12500000       0.00000000       0.00000000 </v>
   <v>       0.16666667       0.00000000       0.00000000 </v>
   <v>       0.20833333       0.00000000       0.00000000 </v>
   <v>       0.25000000       0.00000000       0.00000000 </v>
   <v>       0.29166667       0.00000000       0.00000000 </v>
   <v>       0.33333333       0.00000000       0.00000000 </v>
   <v>       0.37500000       0.00000000       0.00000000 </v>
   <v>       0.41666667       0.00000000       0.00000000 </v>
   <v>       0.45833333       0.00000000       0.00000000 </v>
   <v>       0.50000000       0.00000000       0.00000000 </v>
   <v>       0.00000000       0.02777778       0.00000000 </v>
   <v>       0.04166667       0.02777778       0.00000000 </v>
   <v>       0.08333333       0.02777778       0.00000000 </v>
   <v>       0.12500000       0.02777778       0.00000000 </v>
   <v>       0.16666667       0.02777778       0.00000000 </v>
   <v>       0.20833333       0.02777778       0.00000000 </v>
   <v>       0.25000000       0.02777778       0.00000000 </v>
   <v>       0.29166667       0.02777778       0.00000000 </v>
   <v>       0.33333333       0.02777778       0.00000000 </v>
   <v>       0.37500000       0.02777778       0.00000000 </v>
   <v>       0.41666667       0.02777778       0.00000000 </v>
   <v>       0.45833333       0.02777778       0.00000000 </v>
   <v>       0.50000000       0.02777778       0.00000000 </v>
   <v>       0.00000000       0.05555556       0.00000000 </v>
   <v>       0.04166667       0.05555556       0.00000000 </v>
   <v>       0.08333333       0.05555556       0.00000000 </v>
   <v>       0.12500000       0.05555556       0.00000000 </v>
   <v>       0.16666667       0.05555556       0.00000000 </v>
   <v>       0.20833333       0.05555556       0.00000000 </v>
   <v>       0.25000000       0.05555556       0.00000000 </v>
   <v>       0.29166667       0.05555556       0.00000000 </v>
   <v>       0.33333333       0.05555556       0.00000000 </v>
   <v>       0.37500000       0.05555556       0.00000000 </v>
   <v>       0.41666667       0.05555556       0.00000000 </v>
   <v>       0.45833333       0.05555556       0.00000000 </v>
   <v>       0.50000000       0.05555556       0.00000000 </v>
   <v>       0.00000000       0.08333333       0.00000000 </v>
   <v>       0.04166667       0.08333333       0.00000000 </v>
   <v>       0.08333333       0.08333333       0.00000000 </v>
   <v>       0.12500000       0.08333333       0.00000000 </v>
   <v>       0.16666667       0.08333333       0.00000000 </v>
   <v>       0.20833333       0.08333333       0.00000000 </v>
   <v>       0.25000000       0.08333333       0.00000000 </v>
   <v>       0.29166667       0.08333333       0.00000000 </v>
   <v>       0.33333333       0.08333333       0.00000000 </v>
   <v>       0.37500000       0.08333333       0.00000000 </v>
   <v>       0.41666667       0.08333333       0.00000000 </v>
   <v>       0.45833333       0.08333333       0.00000000 </v>
   <v>       0.50000000       0.08333333       0.00000000 </v>
   <v>       0.00000000       0.11111111       0.00000000 </v>
   <v>       0.04166667       0.11111111       0.00000000 </v>
   <v>       0.08333333       0.11111111       0.00000000 </v>
   <v>       0.12500000       0.11111111       0.00000000 </v>
   <v>       0.16666667       0.11111111       0.00000000 </v>
   <v>       0.20833333       0.11111111       0.00000000 </v>
   <v>       0.25000000       0.11111111       0.00000000 </v>
   <v>       0.29166667       0.11111111       0.00000000 </v>
   <v>       0.33333333       0.11111111       0.00000000 </v>
   <v>       0.37500000       0.11111111       0.00000000 </v>
   <v>       0.41666667       0.11111111       0.00000000 </v>
   <v>       0.45833333       0.11111111       0.00000000 </v>
   <v>       0.50000000       0.11111111       0.00000000 </v>
   <v>       0.00000000       0.13888889       0.00000000 </v>
   <v>       0.04166667       0.13888889       0.00000000 </v>
   <v>       0.08333333       0.13888889       0.00000000 </v>
   <v>       0.12500000       0.13888889       0.00000000 </v>
   <v>       0.16666667       0.13888889       0.00000000 </v>
   <v>       0.20833333       0.13888889       0.00000000 </v>
   <v>       0.25000000       0.13888889       0.00000000 </v>
   <v>       0.29166667       0.13888889       0.00000000 </v>
   <v>       0.33333333       0.13888889       0.00000000 </v>
   <v>       0.37500000       0.13888889       0.00000000 </v>
   <v>       0.41666667       0.13888889       0.00000000 </v>
   <v>       0.45833333       0.13888889       0.00000000 </v>
   <v>       0.50000000       0.13888889       0.00000000 </v>
   <v>       0.00000000       0.16666667       0.00000000 </v>
   <v>       0.04166667       0.16666667       0.00000000 </v>
   <v>       0.08333333       0.16666667       0.00000000 </v>
   <v>       0.12500000       0.16666667       0.00000000 </v>
   <v>       0.16666667       0.16666667       0.00000000 </v>
   <v>       0.20833333       0.16666667       0.00000000 </v>
   <v>       0.25000000       0.16666667       0.00000000 </v>
   <v>       0.29166667       0.16666667       0.00000000 </v>
   <v>       0.33333333       0.16666667       0.00000000 </v>
   <v>       0.37500000       0.16666667       0.00000000 </v>
   <v>       0.41666667       0.16666667       0.00000000 </v>
   <v>       0.45833333       0.16666667       0.00000000 </v>
   <v>       0.50000000       0.16666667       0.00000000 </v>
   <v>       0.00000000       0.19444444       0.00000000 </v>
   <v>       0.04166667       0.19444444       0.00000000 </v>
   <v>       0.08333333       0.19444444       0.00000000 </v>
   <v>       0.12500000       0.19444444       0.00000000 </v>
   <v>       0.16666667       0.19444444       0.00000000 </v>
   <v>       0.20833333       0.19444444       0.00000000 </v>
   <v>       0.25000000       0.19444444       0.00000000 </v>
   <v>       0.29166667       0.19444444       0.00000000 </v>
   <v>       0.33333333       0.19444444       0.00000000 </v>
   <v>       0.37500000       0.19444444       0.00000000 </v>
   <v>       0.41666667       0.19444444       0.00000000 </v>
   <v>       0.45833333       0.19444444       0.00000000 </v>
   <v>       0.50000000       0.19444444       0.00000000 </v>
   <v>       0.00000000       0.22222222       0.00000000 </v>
   <v>       0.04166667       0.22222222       0.00000000 </v>
   <v>       0.08333333       0.22222222       0.00000000 </v>
   <v>       0.12500000       0.22222222       0.00000000 </v>
   <v>       0.16666667       0.22222222       0.00000000 </v>
   <v>       0.20833333       0.22222222       0.00000000 </v>
   <v>       0.25000000       0.22222222       0.00000000 </v>
   <v>       0.29166667       0.22222222       0.00000000 </v>
   <v>       0.33333333       0.22222222       0.00000000 </v>
   <v>       0.37500000       0.22222222       0.00000000 </v>
   <v>       0.41666667       0.22222222       0.00000000 </v>
   <v>       0.45833333       0.22222222       0.00000000 </v>
   <v>       0.50000000       0.22222222       0.00000000 </v>
   <v>       0.00000000       0.25000000       0.00000000 </v>
   <v>       0.04166667       0.25000000       0.00000000 </v>
   <v>       0.08333333       0.25000000       0.00000000 </v>
   <v>       0.12500000       0.25000000       0.00000000 </v>
   <v>       0.16666667       0.25000000       0.00000000 </v>
   <v>       0.20833333       0.25000000       0.00000000 </v>
   <v>       0.25000000       0.25000000       0.00000000 </v>
   <v>       0.29166667       0.25000000       0.00000000 </v>
   <v>       0.33333333       0.25000000       0.00000000 </v>
   <v>       0.37500000       0.25000000       0.00000000 </v>
   <v>       0.41666667       0.25000000       0.00000000 </v>
   <v>       0.45833333       0.25000000       0.00000000 </v>
   <v>       0.50000000       0.25000000       0.00000000 </v>
   <v>       0.00000000       0.27777778       0.00000000 </v>
   <v>       0.04166667       0.27777778       0.00000000 </v>
   <v>       0.08333333       0.27777778       0.00000000 </v>
   <v>       0.12500000       0.27777778       0.00000000 </v>
   <v>       0.16666667       0.27777778       0.00000000 </v>
   <v>       0.20833333       0.27777778       0.00000000 </v>
   <v>       0.25000000       0.27777778       0.00000000 </v>
   <v>       0.29166667       0.27777778       0.00000000 </v>
   <v>       0.33333333       0.27777778       0.00000000 </v>
   <v>       0.37500000       0.27777778       0.00000000 </v>
   <v>       0.41666667       0.27777778       0.00000000 </v>
   <v>       0.45833333       0.27777778       0.00000000 </v>
   <v>       0.50000000       0.27777778       0.00000000 </v>
   <v>       0.00000000       0.30555556       0.00000000 </v>
   <v>       0.04166667       0.30555556       0.00000000 </v>
   <v>       0.08333333       0.30555556       0.00000000 </v>
   <v>       0.12500000       0.30555556       0.00000000 </v>
   <v>       0.16666667       0.30555556       0.00000000 </v>
   <v>       0.20833333       0.30555556       0.00000000 </v>
   <v>       0.25000000       0.30555556       0.00000000 </v>
   <v>       0.29166667       0.30555556       0.00000000 </v>
   <v>       0.33333333       0.30555556       0.00000000 </v>
   <v>       0.37500000       0.30555556       0.00000000 </v>
   <v>       0.41666667       0.30555556       0.00000000 </v>
   <v>       0.45833333       0.30555556       0.00000000 </v>
   <v>       0.50000000       0.30555556       0.00000000 </v>
   <v>       0.00000000       0.33333333       0.00000000 </v>
   <v>       0.04166667       0.33333333       0.00000000 </v>
   <v>       0.08333333       0.33333333       0.00000000 </v>
   <v>       0.12500000       0.33333333       0.00000000 </v>
   <v>       0.16666667       0.33333333       0.00000000 </v>
   <v>       0.20833333       0.33333333       0.00000000 </v>
   <v>       0.25000000       0.33333333       0.00000000 </v>
   <v>       0.29166667       0.33333333       0.00000000 </v>
   <v>       0.33333333       0.33333333       0.00000000 </v>
   <v>       0.37500000       0.33333333       0.00000000 </v>
   <v>       0.41666667       0.33333333       0.00000000 </v>
   <v>       0.45833333       0.33333333       0.00000000 </v>
   <v>       0.50000000       0.33333333       0.00000000 </v>
   <v>       0.00000000       0.36111111       0.00000000 </v>
   <v>       0.04166667       0.36111111       0.00000000 </v>
   <v>       0.08333333       0.36111111       0.00000000 </v>
   <v>       0.12500000       0.36111111       0.00000000 </v>
   <v>       0.16666667       0.36111111       0.00000000 </v>
   <v>       0.20833333       0.36111111       0.00000000 </v>
   <v>       0.25000000       0.36111111       0.00000000 </v>
   <v>       0.29166667       0.36111111       0.00000000 </v>
   <v>       0.33333333       0.36111111       0.00000000 </v>
   <v>       0.37500000       0.36111111       0.00000000 </v>
   <v>       0.41666667       0.36111111       0.00000000 </v>
   <v>       0.45833333       0.36111111       0.00000000 </v>
   <v>       0.50000000       0.36111111       0.00000000 </v>
   <v>       0.00000000       0.38888889       0.00000000 </v>
   <v>       0.04166667       0.38888889       0.00000000 </v>
   <v>       0.08333333       0.38888889       0.00000000 </v>
   <v>       0.12500000       0.38888889       0.00000000 </v>
   <v>       0.16666667       0.38888889       0.00000000 </v>
   <v>       0.20833333       0.38888889       0.00000000 </v>
   <v>       0.25000000       0.38888889       0.00000000 </v>
   <v>       0.29166667       0.38888889       0.00000000 </v>
   <v>       0.33333333       0.38888889       0.00000000 </v>
   <v>       0.37500000       0.38888889       0.00000000 </v>
   <v>       0.41666667       0.38888889       0.00000000 </v>
   <v>       0.45833333       0.38888889       0.00000000 </v>
   <v>       0.50000000       0.38888889       0.00000000 </v>
   <v>       0.00000000       0.41666667       0.00000000 </v>
   <v>       0.04166667       0.41666667       0.00000000 </v>
   <v>       0.08333333       0.41666667       0.00000000 </v>
   <v>       0.12500000       0.41666667       0.00000000 </v>
   <v>       0.16666667       0.41666667       0.00000000 </v>
   <v>       0.20833333       0.41666667       0.00000000 </v>
   <v>       0.25000000       0.41666667       0.00000000 </v>
   <v>       0.29166667       0.41666667       0.00000000 </v>
   <v>       0.33333333       0.41666667       0.00000000 </v>
   <v>       0.37500000       0.41666667       0.00000000 </v>
   <v>       0.41666667       0.41666667       0.00000000 </v>
   <v>       0.45833333       0.41666667       0.00000000 </v>
   <v>       0.50000000       0.41666667       0.00000000 </v>
   <v>       0.00000000       0.44444444       0.00000000 </v>
   <v>       0.04166667       0.44444444       0.00000000 </v>
   <v>       0.08333333       0.44444444       0.00000000 </v>
   <v>       0.12500000       0.44444444       0.00000000 </v>
   <v>       0.16666667       0.44444444       0.00000000 </v>
   <v>       0.20833333       0.44444444       0.00000000 </v>
   <v>       0.25000000       0.44444444       0.00000000 </v>
   <v>       0.29166667       0.44444444       0.00000000 </v>
   <v>       0.33333333       0.44444444       0.00000000 </v>
   <v>       0.37500000       0.44444444       0.00000000 </v>
   <v>       0.41666667       0.44444444       0.00000000 </v>
   <v>       0.45833333       0.44444444       0.00000000 </v>
   <v>       0.50000000       0.44444444       0.00000000 </v>
   <v>       0.00000000       0.47222222       0.00000000 </v>
   <v>       0.04166667       0.47222222       0.00000000 </v>
   <v>       0.08333333       0.47222222       0.00000000 </v>
   <v>       0.12500000       0.47222222       0.00000000 </v>
   <v>       0.16666667       0.47222222       0.00000000 </v>
   <v>       0.20833333       0.47222222       0.00000000 </v>
   <v>       0.25000000       0.47222222       0.00000000 </v>
   <v>       0.29166667       0.47222222       0.00000000 </v>
   <v>       0.33333333       0.47222222       0.00000000 </v>
   <v>       0.37500000       0.47222222       0.00000000 </v>
   <v>       0.41666667       0.47222222       0.00000000 </v>
   <v>       0.45833333       0.47222222       0.00000000 </v>
   <v>       0.50000000       0.47222222       0.00000000 </v>
   <v>       0.00000000       0.50000000       0.00000000 </v>
   <v>       0.04166667       0.50000000       0.00000000 </v>
   <v>       0.08333333       0.50000000       0.00000000 </v>
   <v>       0.12500000       0.50000000       0.00000000 </v>
   <v>       0.16666667       0.50000000       0.00000000 </v>
   <v>       0.20833333       0.50000000       0.00000000 </v>
   <v>       0.25000000       0.50000000       0.00000000 </v>
   <v>       0.29166667       0.50000000       0.00000000 </v>
   <v>       0.33333333       0.50000000       0.00000000 </v>
   <v>       0.37500000       0.50000000       0.00000000 </v>
   <v>       0.41666667       0.50000000       0.00000000 </v>
   <v>       0.45833333       0.50000000       0.00000000 </v>
   <v>       0.50000000       0.50000000       0.00000000 </v>
  </varray>
  <varray name="weights" >
   <v>       0.00115741 </v>
   <v>       0.00231481 </v>
   <v>       0.00231481 </v>
   <v>       0.00231481 </v>
   <v>       0.00231481 </v>
   <v>       0.00231481 </v>
   <v>       0.00231481 </v>
   <v>       0.00231481 </v>
   <v>       0.00231481 </v>
   <v>       0.00231481 </v>
   <v>       0.00231481 </v>
   <v>       0.00231481 </v>
   <v>       0.00115741 </v>
   <v>       0.00231481 </v>
   <v>       0.00462963 </v>
   <v>       0.00462963 </v>
   <v>       0.00462963 </v>
   <v>       0.00462963 </v>
   <v>       0.00462963 </v>
   <v>       0.00462963 </v>
   <v>       0.00462963 </v>
   <v>       0.00462963 </v>
   <v>       0.00462963 </v>
   <v>       0.00462963 </v>
   <v>       0.00462963 </v>
   <v>       0.00231481 </v>
   <v>       0.00231481 </v>
   <v>       0.00462963 </v>
   <v>       0.00462963 </v>
   <v>       0.00462963 </v>
   <v>       0.00462963 </v>
   <v>       0.00462963 </v>
   <v>       0.00462963 </v>
   <v>       0.00462963 </v>
   <v>       0.00462963 </v>
   <v>       0.00462963 </v>
   <v>       0.00462963 </v>
   <v>       0.00462963 </v>
   <v>       0.00231481 </v>
   <v>       0.00231481 </v>
   <v>       0.00462963 </v>
   <v>       0.00462963 </v>
   <v>       0.00462963 </v>
   <v>       0.00462963 </v>
   <v>       0.00462963 </v>
   <v>       0.00462963 </v>
   <v>       0.00462963 </v>
   <v>       0.00462963 </v>
   <v>       0.00462963 </v>
   <v>       0.00462963 </v>
   <v>       0.00462963 </v>
   <v>       0.00231481 </v>
   <v>       0.00231481 </v>
   <v>       0.00462963 </v>
   <v>       0.00462963 </v>
   <v>       0.00462963 </v>
   <v>       0.00462963 </v>
   <v>       0.00462963 </v>
   <v>       0.00462963 </v>
   <v>       0.00462963 </v>
   <v>       0.00462963 </v>
   <v>       0.00462963 </v>
   <v>       0.00462963 </v>
   <v>       0.00462963 </v>
   <v>       0.00231481 </v>
   <v>       0.00231481 </v>
   <v>       0.00462963 </v>
   <v>       0.00462963 </v>
   <v>       0.00462963 </v>
   <v>       0.00462963 </v>
   <v>       0.00462963 </v>
   <v>       0.00462963 </v>
   <v>       0.00462963 </v>
   <v>       0.00462963 </v>
   <v>       0.00462963 </v>
   <v>       0.00462963 </v>
   <v>       0.00462963 </v>
   <v>       0.00231481 </v>
   <v>       0.00231481 </v>
   <v>       0.00462963 </v>
   <v>       0.00462963 </v>
   <v>       0.00462963 </v>
   <v>       0.00462963 </v>
   <v>       0.00462963 </v>
   <v>       0.00462963 </v>
   <v>       0.00462963 </v>
   <v>       0.00462963 </v>
   <v>       0.00462963 </v>
   <v>       0.00462963 </v>
   <v>       0.00462963 </v>
   <v>       0.00231481 </v>
   <v>       0.00231481 </v>
   <v>       0.00462963 </v>
   <v>       0.00462963 </v>
   <v>       0.00462963 </v>
   <v>       0.00462963 </v>
   <v>       0.00462963 </v>
   <v>       0.00462963 </v>
   <v>       0.00462963 </v>
   <v>       0.00462963 </v>
   <v>       0.00462963 </v>
   <v>       0.00462963 </v>
   <v>       0.00462963 </v>
   <v>       0.00231481 </v>
   <v>       0.00231481 </v>
   <v>       0.00462963 </v>
   <v>       0.00462963 </v>
   <v>       0.00462963 </v>
   <v>       0.00462963 </v>
   <v>       0.00462963 </v>
   <v>       0.00462963 </v>
   <v>       0.00462963 </v>
   <v>       0.00462963 </v>
   <v>       0.00462963 </v>
   <v>       0.00462963 </v>
   <v>       0.00462963 </v>
   <v>       0.00231481 </v>
   <v>       0.00231481 </v>
   <v>       0.00462963 </v>
   <v>       0.00462963 </v>
   <v>       0.00462963 </v>
   <v>       0.00462963 </v>
   <v>       0.00462963 </v>
   <v>       0.00462963 </v>
   <v>       0.00462963 </v>
   <v>       0.00462963 </v>
   <v>       0.00462963 </v>
   <v>       0.00462963 </v>
   <v>       0.00462963 </v>
   <v>       0.00231481 </v>
   <v>       0.00231481 </v>
   <v>       0.00462963 </v>
   <v>       0.00462963 </v>
   <v>       0.00462963 </v>
   <v>       0.00462963 </v>
   <v>       0.00462963 </v>
   <v>       0.00462963 </v>
   <v>       0.00462963 </v>
   <v>       0.00462963 </v>
   <v>       0.00462963 </v>
   <v>       0.00462963 </v>
   <v>       0.00462963 </v>
   <v>       0.00231481 </v>
   <v>       0.00231481 </v>
   <v>       0.00462963 </v>
   <v>       0.00462963 </v>
   <v>       0.00462963 </v>
   <v>       0.00462963 </v>
   <v>       0.00462963 </v>
   <v>       0.00462963 </v>
   <v>       0.00462963 </v>
   <v>       0.00462963 </v>
   <v>       0.00462963 </v>
   <v>       0.00462963 </v>
   <v>       0.00462963 </v>
   <v>       0.00231481 </v>
   <v>       0.00231481 </v>
   <v>       0.00462963 </v>
   <v>       0.00462963 </v>
   <v>       0.00462963 </v>
   <v>       0.00462963 </v>
   <v>       0.00462963 </v>
   <v>       0.00462963 </v>
   <v>       0.00462963 </v>
   <v>       0.00462963 </v>
   <v>       0.00462963 </v>
   <v>       0.00462963 </v>
   <v>       0.00462963 </v>
   <v>       0.00231481 </v>
   <v>       0.00231481 </v>
   <v>       0.00462963 </v>
   <v>       0.00462963 </v>
   <v>       0.00462963 </v>
   <v>       0.00462963 </v>
   <v>       0.00462963 </v>
   <v>       0.00462963 </v>
   <v>       0.00462963 </v>
   <v>       0.00462963 </v>
   <v>       0.00462963 </v>
   <v>       0.00462963 </v>
   <v>       0.00462963 </v>
   <v>       0.00231481 </v>
   <v>       0.00231481 </v>
   <v>       0.00462963 </v>
   <v>       0.00462963 </v>
   <v>       0.00462963 </v>
   <v>       0.00462963 </v>
   <v>       0.00462963 </v>
   <v>       0.00462963 </v>
   <v>       0.00462963 </v>
   <v>       0.00462963 </v>
   <v>       0.00462963 </v>
   <v>       0.00462963 </v>
   <v>       0.00462963 </v>
   <v>       0.00231481 </v>
   <v>       0.00231481 </v>
   <v>       0.00462963 </v>
   <v>       0.00462963 </v>
   <v>       0.00462963 </v>
   <v>       0.00462963 </v>
   <v>       0.00462963 </v>
   <v>       0.00462963 </v>
   <v>       0.00462963 </v>
   <v>       0.00462963 </v>
   <v>       0.00462963 </v>
   <v>       0.00462963 </v>
   <v>       0.00462963 </v>
   <v>       0.00231481 </v>
   <v>       0.00231481 </v>
   <v>       0.00462963 </v>
   <v>       0.00462963 </v>
   <v>       0.00462963 </v>
   <v>       0.00462963 </v>
   <v>       0.00462963 </v>
   <v>       0.00462963 </v>
   <v>       0.00462963 </v>
   <v>       0.00462963 </v>
   <v>       0.00462963 </v>
   <v>       0.00462963 </v>
   <v>       0.00462963 </v>
   <v>       0.00231481 </v>
   <v>       0.00231481 </v>
   <v>       0.00462963 </v>
   <v>       0.00462963 </v>
   <v>       0.00462963 </v>
   <v>       0.00462963 </v>
   <v>       0.00462963 </v>
   <v>       0.00462963 </v>
   <v>       0.00462963 </v>
   <v>       0.00462963 </v>
   <v>       0.00462963 </v>
   <v>       0.00462963 </v>
   <v>       0.00462963 </v>
   <v>       0.00231481 </v>
   <v>       0.00115741 </v>
   <v>       0.00231481 </v>
   <v>       0.00231481 </v>
   <v>       0.00231481 </v>
   <v>       0.00231481 </v>
   <v>       0.00231481 </v>
   <v>       0.00231481 </v>
   <v>       0.00231481 </v>
   <v>       0.00231481 </v>
   <v>       0.00231481 </v>
   <v>       0.00231481 </v>
   <v>       0.00231481 </v>
   <v>       0.00115741 </v>
  </varray>
 </kpoints>
 <parameters>
  <separator name="general" >
   <i type="string" name="SYSTEM">gr</i>
   <i type="logical" name="LCOMPAT"> F  </i>
  </separator>
  <separator name="electronic" >
   <i type="string" name="PREC">accura</i>
   <i name="ENMAX">   2000.00000000</i>
   <i name="ENAUG">    644.87300000</i>
   <i name="EDIFF">      0.00000000</i>
   <i type="int" name="IALGO">    68</i>
   <i type="int" name="IWAVPR">    11</i>
   <i type="int" name="NBANDS">    12</i>
   <i name="NELECT">     16.00000000</i>
   <i type="int" name="TURBO">     0</i>
   <i type="int" name="IRESTART">     0</i>
   <i type="int" name="NREBOOT">     0</i>
   <i type="int" name="NMIN">     0</i>
   <i name="EREF">      0.00000000</i>
   <separator name="electronic smearing" >
    <i type="int" name="ISMEAR">     0</i>
    <i name="SIGMA">      0.05000000</i>
    <i name="KSPACING">      0.50000000</i>
    <i type="logical" name="KGAMMA"> T  </i>
   </separator>
   <separator name="electronic projectors" >
    <i type="logical" name="LREAL"> F  </i>
    <v name="ROPT">      0.00000000</v>
    <i type="int" name="LMAXPAW">  -100</i>
    <i type="int" name="LMAXMIX">     2</i>
    <i type="logical" name="NLSPLINE"> F  </i>
   </separator>
   <separator name="electronic startup" >
    <i type="int" name="ISTART">     0</i>
    <i type="int" name="ICHARG">     2</i>
    <i type="int" name="INIWAV">     1</i>
   </separator>
   <separator name="electronic spin" >
    <i type="int" name="ISPIN">     1</i>
    <i type="logical" name="LNONCOLLINEAR"> F  </i>
    <v name="MAGMOM">      1.00000000      1.00000000      1.00000000      1.00000000</v>
    <i name="NUPDOWN">     -1.00000000</i>
    <i type="logical" name="LSORBIT"> F  </i>
    <v name="SAXIS">      0.00000000      0.00000000      1.00000000</v>
    <i type="logical" name="LSPIRAL"> F  </i>
    <v name="QSPIRAL">      0.00000000      0.00000000      0.00000000</v>
    <i type="logical" name="LZEROZ"> F  </i>
   </separator>
   <separator name="electronic exchange-correlation" >
    <i type="logical" name="LASPH"> F  </i>
    <i type="logical" name="LMETAGGA"> F  </i>
   </separator>
   <separator name="electronic convergence" >
    <i type="int" name="NELM">   100</i>
    <i type="int" name="NELMDL">    -3</i>
    <i type="int" name="NELMIN">     5</i>
    <i name="ENINI">   2000.00000000</i>
    <separator name="electronic convergence detail" >
     <i type="logical" name="LDIAG"> T  </i>
     <i type="logical" name="LSUBROT"> F  </i>
     <i name="WEIMIN">      0.00100000</i>
     <i name="EBREAK">      0.00000000</i>
     <i name="DEPER">      0.30000000</i>
     <i type="int" name="NRMM">     4</i>
     <i name="TIME">      0.40000000</i>
    </separator>
   </separator>
   <separator name="electronic mixer" >
    <i name="AMIX">      0.40000000</i>
    <i name="BMIX">      1.00000000</i>
    <i name="AMIN">      0.10000000</i>
    <i name="AMIX_MAG">      1.60000000</i>
    <i name="BMIX_MAG">      1.00000000</i>
    <separator name="electronic mixer details" >
     <i type="int" name="IMIX">     4</i>
     <i type="int" name="MAXMIX">   -45</i>
     <i name="WC">    100.00000000</i>
     <i type="int" name="INIMIX">     1</i>
     <i type="int" name="MIXPRE">     1</i>
     <i type="int" name="MREMOVE">     5</i>
    </separator>
   </separator>
   <separator name="electronic dipolcorrection" >
    <i type="logical" name="LDIPOL"> F  </i>
    <i type="logical" name="LMONO"> F  </i>
    <i type="int" name="IDIPOL">     0</i>
    <i name="EPSILON">      1.00000000</i>
    <v name="DIPOL">   -100.00000000   -100.00000000   -100.00000000</v>
    <i name="EFIELD">      0.00000000</i>
   </separator>
  </separator>
  <separator name="grids" >
   <i type="int" name="NGX">    64</i>
   <i type="int" name="NGY">    36</i>
   <i type="int" name="NGZ">   288</i>
   <i type="int" name="NGXF">   128</i>
   <i type="int" name="NGYF">    72</i>
   <i type="int" name="NGZF">   576</i>
   <i type="logical" name="ADDGRID"> F  </i>
  </separator>
  <separator name="ionic" >
   <i type="int" name="NSW">   400</i>
   <i type="int" name="IBRION">     1</i>
   <i type="int" name="ISIF">     2</i>
   <i name="PSTRESS">      0.00000000</i>
   <i name="EDIFFG">     -0.00000100</i>
   <i type="int" name="NFREE">     0</i>
   <i name="POTIM">      0.50000000</i>
   <i name="SMASS">     -3.00000000</i>
   <i name="SCALEE">      1.00000000</i>
  </separator>
  <separator name="ionic md" >
   <i name="TEBEG">      0.00010000</i>
   <i name="TEEND">      0.00010000</i>
   <i type="int" name="NBLOCK">     1</i>
   <i type="int" name="KBLOCK">   400</i>
   <i type="int" name="NPACO">   256</i>
   <i name="APACO">     16.00000000</i>
  </separator>
  <separator name="symmetry" >
   <i type="int" name="ISYM">     2</i>
   <i name="SYMPREC">      0.00001000</i>
  </separator>
  <separator name="dos" >
   <i type="logical" name="LORBIT"> F  </i>
   <v name="RWIGS">     -1.00000000</v>
   <i type="int" name="NEDOS">   301</i>
   <i name="EMIN">     10.00000000</i>
   <i name="EMAX">    -10.00000000</i>
   <i name="EFERMI">      0.00000000</i>
  </separator>
  <separator name="writing" >
   <i type="int" name="NWRITE">     2</i>
   <i type="logical" name="LWAVE"> F  </i>
   <i type="logical" name="LCHARG"> F  </i>
   <i type="logical" name="LPARD"> F  </i>
   <i type="logical" name="LVTOT"> F  </i>
   <i type="logical" name="LVHAR"> F  </i>
   <i type="logical" name="LELF"> F  </i>
   <i type="logical" name="LOPTICS"> F  </i>
   <v name="STM">      0.00000000      0.00000000      0.00000000      0.00000000      0.00000000      0.00000000      0.00000000</v>
  </separator>
  <separator name="performance" >
   <i type="int" name="NPAR">     4</i>
   <i type="int" name="NSIM">     4</i>
   <i type="int" name="NBLK">    -1</i>
   <i type="logical" name="LPLANE"> T  </i>
   <i type="logical" name="LSCALAPACK"> F  </i>
   <i type="logical" name="LSCAAWARE"> F  </i>
   <i type="logical" name="LSCALU"> F  </i>
   <i type="logical" name="LASYNC"> F  </i>
   <i type="logical" name="LORBITALREAL"> F  </i>
  </separator>
  <separator name="miscellaneous" >
   <i type="int" name="IDIOT">     3</i>
   <i type="logical" name="LMUSIC"> F  </i>
   <v name="POMASS">     12.01100000</v>
   <v name="DARWINR">      0.00000000</v>
   <v name="DARWINV">      1.00000000</v>
   <i type="logical" name="LCORR"> T  </i>
  </separator>
  <i type="logical" name="GGA_COMPAT"> T  </i>
  <i type="logical" name="LBERRY"> F  </i>
  <i type="int" name="ICORELEVEL">     0</i>
  <i type="logical" name="LDAU"> F  </i>
  <i type="int" name="I_CONSTRAINED_M">     0</i>
  <separator name="electronic exchange-correlation" >
   <i type="string" name="GGA">--</i>
   <i type="int" name="VOSKOWN">     0</i>
   <i type="logical" name="LHFCALC"> F  </i>
   <i type="string" name="PRECFOCK"></i>
   <i type="logical" name="LSYMGRAD"> F  </i>
   <i type="logical" name="LHFONE"> F  </i>
   <i type="logical" name="LRHFCALC"> F  </i>
   <i type="logical" name="LTHOMAS"> F  </i>
   <i type="logical" name="LMODELHF"> F  </i>
   <i name="ENCUT4O">     -1.00000000</i>
   <i type="int" name="EXXOEP">     0</i>
   <i type="int" name="FOURORBIT">     0</i>
   <i name="AEXX">      0.00000000</i>
   <i name="HFALPHA">      0.00000000</i>
   <i name="MCALPHA">      0.00000000</i>
   <i name="ALDAX">      1.00000000</i>
   <i name="AGGAX">      1.00000000</i>
   <i name="ALDAC">      1.00000000</i>
   <i name="AGGAC">      1.00000000</i>
   <i type="int" name="NKREDX">     1</i>
   <i type="int" name="NKREDY">     1</i>
   <i type="int" name="NKREDZ">     1</i>
   <i type="logical" name="SHIFTRED"> F  </i>
   <i type="logical" name="ODDONLY"> F  </i>
   <i type="logical" name="EVENONLY"> F  </i>
   <i type="int" name="LMAXFOCK">     0</i>
   <i type="int" name="NMAXFOCKAE">     0</i>
   <i type="logical" name="LFOCKAEDFT"> F  </i>
   <i name="HFSCREEN">      0.00000000</i>
   <i name="HFSCREENC">      0.00000000</i>
   <i type="int" name="NBANDSGWLOW">     0</i>
  </separator>
  <separator name="vdW DFT" >
   <i type="logical" name="LUSE_VDW"> F  </i>
   <i name="Zab_VDW">     -0.84910000</i>
   <i name="PARAM1">      0.12340000</i>
   <i name="PARAM2">      1.00000000</i>
   <i name="PARAM3">      0.00000000</i>
  </separator>
  <separator name="model GW" >
   <i type="int" name="MODEL_GW">     0</i>
   <i name="MODEL_EPS0">     31.62568521</i>
   <i name="MODEL_ALPHA">      1.00000000</i>
  </separator>
  <separator name="linear response parameters" >
   <i type="logical" name="LEPSILON"> F  </i>
   <i type="logical" name="LRPA"> F  </i>
   <i type="logical" name="LNABLA"> F  </i>
   <i type="logical" name="LVEL"> F  </i>
   <i type="int" name="KINTER">     0</i>
   <i name="CSHIFT">      0.10000000</i>
   <i name="OMEGAMAX">     -1.00000000</i>
   <i name="DEG_THRESHOLD">      0.00200000</i>
  </separator>
  <separator name="orbital magnetization" >
   <i type="logical" name="NUCIND"> F  </i>
   <v name="MAGPOS">      0.00000000      0.00000000      0.00000000</v>
   <i type="logical" name="LNICSALL"> T  </i>
   <i type="logical" name="ORBITALMAG"> F  </i>
   <i type="logical" name="LMAGBLOCH"> F  </i>
   <i type="logical" name="LCHIMAG"> F  </i>
   <i type="logical" name="LGAUGE"> T  </i>
   <i type="int" name="MAGATOM">     0</i>
   <v name="MAGDIPOL">      0.00000000      0.00000000      0.00000000</v>
   <v name="AVECCONST">      0.00000000      0.00000000      0.00000000</v>
  </separator>
  <separator name="response functions" >
   <i type="logical" name="LADDER"> F  </i>
   <i type="logical" name="LFXC"> F  </i>
   <i type="logical" name="LHARTREE"> T  </i>
   <i type="int" name="IBSE">     0</i>
   <i type="logical" name="LTCTE"> F  </i>
   <i type="logical" name="LTETE"> F  </i>
   <i type="logical" name="LTRIPLET"> F  </i>
   <i type="logical" name="LFXCEPS"> F  </i>
   <i type="logical" name="LFXHEG"> F  </i>
   <i type="logical" name="L2ORDER"> F  </i>
   <i type="logical" name="LUSEW"> F  </i>
   <i name="ENCUTGW">     -2.00000000</i>
   <i name="ENCUTGWSOFT">     -2.00000000</i>
   <i name="ENCUTLF">     -1.00000000</i>
   <i type="int" name="LMAXMP2">    -1</i>
   <i name="SCISSOR">      0.00000000</i>
   <i type="int" name="NOMEGA">     0</i>
   <i type="int" name="NOMEGAR">     0</i>
   <i type="int" name="NBANDSGW">    -1</i>
   <i type="int" name="NBANDSO">    -1</i>
   <i type="int" name="NBANDSV">    -1</i>
   <i type="int" name="NELM">   100</i>
   <i type="int" name="DIM">     3</i>
   <i type="int" name="ANTIRES">     0</i>
   <i name="OMEGAMAX">    -30.00000000</i>
   <i name="OMEGAMIN">    -30.00000000</i>
   <i name="OMEGATL">   -200.00000000</i>
   <i type="int" name="OMEGAGRID">     0</i>
   <i name="CSHIFT">     -0.10000000</i>
   <i type="logical" name="SELFENERGY"> F  </i>
   <i type="logical" name="LSPECTRAL"> F  </i>
   <i type="logical" name="ODDONLYGW"> F  </i>
   <i type="logical" name="EVENONLYGW"> F  </i>
   <i type="int" name="NKREDLFX">     1</i>
   <i type="int" name="NKREDLFY">     1</i>
   <i type="int" name="NKREDLFZ">     1</i>
   <i type="int" name="MAXMEM">  1800</i>
   <i type="int" name="TELESCOPE">     0</i>
   <i type="int" name="TAUPAR">     1</i>
  </separator>
  <separator name="External order field" >
   <i name="OFIELD_KAPPA">      0.00000000</i>
   <v name="OFIELD_K">      0.00000000      0.00000000      0.00000000</v>
   <i name="OFIELD_Q6_NEAR">      0.00000000</i>
   <i name="OFIELD_Q6_FAR">      0.00000000</i>
   <i name="OFIELD_A">      0.00000000</i>
  </separator>
 </parameters>
 <atominfo>
  <atoms>       4 </atoms>
  <types>       1 </types>
  <array name="atoms" >
   <dimension dim="1">ion</dimension>
   <field type="string">element</field>
   <field type="int">atomtype</field>
   <set>
    <rc><c>C </c><c>   1</c></rc>
    <rc><c>C </c><c>   1</c></rc>
    <rc><c>C </c><c>   1</c></rc>
    <rc><c>C </c><c>   1</c></rc>
   </set>
  </array>
  <array name="atomtypes" >
   <dimension dim="1">type</dimension>
   <field type="int">atomspertype</field>
   <field type="string">element</field>
   <field>mass</field>
   <field>valence</field>
   <field type="string">pseudopotential</field>
   <set>
    <rc><c>   4</c><c>C </c><c>     12.01100000</c><c>      4.00000000</c><c> PAW_PBE C 08Apr2002                    </c></rc>
   </set>
  </array>
 </atominfo>
 <structure name="initialpos" >
  <crystal>
   <varray name="basis" >
    <v>       4.40125169       0.00000000       0.00000000 </v>
    <v>       0.00000000       2.45546062       0.00000000 </v>
    <v>       0.00000000       0.00000000      19.50920204 </v>
   </varray>
   <i name="volume">    210.83790140 </i>
   <varray name="rec_basis" >
    <v>       0.22720809       0.00000000       0.00000000 </v>
    <v>       0.00000000       0.40725556       0.00000000 </v>
    <v>       0.00000000       0.00000000       0.05125786 </v>
   </varray>
  </crystal>
  <varray name="positions" >
   <v>       0.99938979       0.00000000       0.00000000 </v>
   <v>       0.16727688       0.50000000       0.00000000 </v>
   <v>       0.49938979       0.50000000       0.00000000 </v>
   <v>       0.66727688       0.00000000       0.00000000 </v>
  </varray>
 </structure>
 <calculation>
  <scstep>
   <time name="dav">  293.70  294.05</time>
   <time name="total">  296.23  296.58</time>
   <energy>
    <i name="alphaZ">      6.18334092 </i>
    <i name="ewald">   2422.62110259 </i>
    <i name="hartreedc">  -2852.91826878 </i>
    <i name="XCdc">     54.76132946 </i>
    <i name="pawpsdc">    151.32577238 </i>
    <i name="pawaedc">   -155.92769107 </i>
    <i name="eentropy">     -0.00153873 </i>
    <i name="bandstr">    -28.43141064 </i>
    <i name="atom">    588.62352690 </i>
    <i name="e_fr_energy">    186.23616304 </i>
    <i name="e_wo_entrp">    186.23770178 </i>
    <i name="e_0_energy">    186.23693241 </i>
   </energy>
  </scstep>
  <scstep>
   <time name="dav">  444.31  444.81</time>
   <time name="total">  444.31  444.82</time>
   <energy>
    <i name="e_fr_energy">     -9.09675242 </i>
    <i name="e_wo_entrp">     -9.09593466 </i>
    <i name="e_0_energy">     -9.09634354 </i>
   </energy>
  </scstep>
  <scstep>
   <time name="dav">  341.57  342.11</time>
   <time name="total">  371.61  372.17</time>
   <energy>
    <i name="e_fr_energy">    -38.03164629 </i>
    <i name="e_wo_entrp">    -38.03164629 </i>
    <i name="e_0_energy">    -38.03164629 </i>
   </energy>
  </scstep>
  <scstep>
   <time name="diag">   78.33   78.35</time>
   <time name="diis">  322.62  322.68</time>
   <time name="orth">    3.10    3.10</time>
   <time name="total">  435.96  436.04</time>
   <energy>
    <i name="e_fr_energy">    -37.53190167 </i>
    <i name="e_wo_entrp">    -37.53190167 </i>
    <i name="e_0_energy">    -37.53190167 </i>
   </energy>
  </scstep>
  <scstep>
   <time name="diag">   78.41   78.42</time>
   <time name="diis">  322.71  322.80</time>
   <time name="orth">    3.11    3.11</time>
   <time name="total">  436.55  436.68</time>
   <energy>
    <i name="e_fr_energy">    -36.83839828 </i>
    <i name="e_wo_entrp">    -36.83839828 </i>
    <i name="e_0_energy">    -36.83839828 </i>
   </energy>
  </scstep>
  <scstep>
   <time name="diag">   78.38   78.40</time>
   <time name="diis">  351.21  351.28</time>
   <time name="orth">    3.11    3.11</time>
   <time name="total">  464.56  464.70</time>
   <energy>
    <i name="e_fr_energy">    -36.84028094 </i>
    <i name="e_wo_entrp">    -36.84028094 </i>
    <i name="e_0_energy">    -36.84028094 </i>
   </energy>
  </scstep>
  <scstep>
   <time name="diag">   78.36   78.46</time>
   <time name="diis">  323.23  323.46</time>
   <time name="orth">    3.11    3.11</time>
   <time name="total">  436.81  437.19</time>
   <energy>
    <i name="e_fr_energy">    -36.83164631 </i>
    <i name="e_wo_entrp">    -36.83164631 </i>
    <i name="e_0_energy">    -36.83164631 </i>
   </energy>
  </scstep>
  <scstep>
   <time name="diag">   78.30   78.31</time>
   <time name="diis">  325.32  326.12</time>
   <time name="orth">    3.11    3.11</time>
   <time name="total">  438.76  439.65</time>
   <energy>
    <i name="e_fr_energy">    -36.82709999 </i>
    <i name="e_wo_entrp">    -36.82709999 </i>
    <i name="e_0_energy">    -36.82709999 </i>
   </energy>
  </scstep>
  <scstep>
   <time name="diag">   78.42   78.43</time>
   <time name="diis">  320.54  320.60</time>
   <time name="orth">    3.11    3.11</time>
   <time name="total">  434.37  434.49</time>
   <energy>
    <i name="e_fr_energy">    -36.82682922 </i>
    <i name="e_wo_entrp">    -36.82682922 </i>
    <i name="e_0_energy">    -36.82682922 </i>
   </energy>
  </scstep>
  <scstep>
   <time name="diag">   78.45   78.46</time>
   <time name="diis">  321.48  321.54</time>
   <time name="orth">    3.10    3.10</time>
   <time name="total">  435.16  435.27</time>
   <energy>
    <i name="e_fr_energy">    -36.82672684 </i>
    <i name="e_wo_entrp">    -36.82672684 </i>
    <i name="e_0_energy">    -36.82672684 </i>
   </energy>
  </scstep>
  <scstep>
   <time name="diag">   78.40   78.43</time>
   <time name="diis">  322.34  322.42</time>
   <time name="orth">    3.10    3.11</time>
   <time name="total">  435.80  435.95</time>
   <energy>
    <i name="e_fr_energy">    -36.82892647 </i>
    <i name="e_wo_entrp">    -36.82892647 </i>
    <i name="e_0_energy">    -36.82892647 </i>
   </energy>
  </scstep>
  <scstep>
   <time name="diag">   78.45   78.46</time>
   <time name="diis">  323.01  323.23</time>
   <time name="orth">    3.09    3.09</time>
   <time name="total">  436.78  437.18</time>
   <energy>
    <i name="e_fr_energy">    -36.82943870 </i>
    <i name="e_wo_entrp">    -36.82943870 </i>
    <i name="e_0_energy">    -36.82943870 </i>
   </energy>
  </scstep>
  <scstep>
   <time name="diag">   78.19   78.51</time>
   <time name="diis">  328.81  329.12</time>
   <time name="orth">    3.10    3.10</time>
   <time name="total">  442.14  442.86</time>
   <energy>
    <i name="e_fr_energy">    -36.82971160 </i>
    <i name="e_wo_entrp">    -36.82971160 </i>
    <i name="e_0_energy">    -36.82971160 </i>
   </energy>
  </scstep>
  <scstep>
   <time name="diag">   78.36   78.38</time>
   <time name="diis">  326.90  327.00</time>
   <time name="orth">    3.08    3.08</time>
   <time name="total">  440.23  440.36</time>
   <energy>
    <i name="e_fr_energy">    -36.82979549 </i>
    <i name="e_wo_entrp">    -36.82979549 </i>
    <i name="e_0_energy">    -36.82979549 </i>
   </energy>
  </scstep>
  <scstep>
   <time name="diag">   77.63   78.42</time>
   <time name="diis">  317.36  320.45</time>
   <time name="orth">    3.11    3.11</time>
   <time name="total">  430.00  433.98</time>
   <energy>
    <i name="e_fr_energy">    -36.82981038 </i>
    <i name="e_wo_entrp">    -36.82981038 </i>
    <i name="e_0_energy">    -36.82981038 </i>
   </energy>
  </scstep>
  <scstep>
   <time name="diag">   78.18   78.42</time>
   <time name="diis">  319.89  320.98</time>
   <time name="orth">    3.12    3.12</time>
   <time name="total">  433.60  434.97</time>
   <energy>
    <i name="e_fr_energy">    -36.82982423 </i>
    <i name="e_wo_entrp">    -36.82982423 </i>
    <i name="e_0_energy">    -36.82982423 </i>
   </energy>
  </scstep>
  <scstep>
   <time name="diag">   78.23   78.41</time>
   <time name="diis">  318.66  321.12</time>
   <time name="orth">    3.09    3.11</time>
   <time name="total">  432.13  434.98</time>
   <energy>
    <i name="e_fr_energy">    -36.82983045 </i>
    <i name="e_wo_entrp">    -36.82983045 </i>
    <i name="e_0_energy">    -36.82983045 </i>
   </energy>
  </scstep>
  <scstep>
   <time name="diag">   78.15   78.40</time>
   <time name="diis">  322.44  324.82</time>
   <time name="orth">    3.10    3.11</time>
   <time name="total">  435.74  438.77</time>
   <energy>
    <i name="e_fr_energy">    -36.82983159 </i>
    <i name="e_wo_entrp">    -36.82983159 </i>
    <i name="e_0_energy">    -36.82983159 </i>
   </energy>
  </scstep>
  <scstep>
   <time name="diag">   77.93   78.39</time>
   <time name="diis">  275.84  278.25</time>
   <time name="orth">    3.08    3.10</time>
   <time name="total">  388.79  391.92</time>
   <energy>
    <i name="e_fr_energy">    -36.82983231 </i>
    <i name="e_wo_entrp">    -36.82983231 </i>
    <i name="e_0_energy">    -36.82983231 </i>
   </energy>
  </scstep>
  <scstep>
   <time name="diag">   78.39   78.40</time>
   <time name="diis">  254.79  254.85</time>
   <time name="orth">    3.11    3.11</time>
   <time name="total">  368.42  368.51</time>
   <energy>
    <i name="e_fr_energy">    -36.82983234 </i>
    <i name="e_wo_entrp">    -36.82983234 </i>
    <i name="e_0_energy">    -36.82983234 </i>
   </energy>
  </scstep>
  <scstep>
   <time name="diag">   78.40   78.42</time>
   <time name="diis">  240.51  240.56</time>
   <time name="orth">    3.10    3.10</time>
   <time name="total">  354.27  354.80</time>
   <energy>
    <i name="e_fr_energy">    -36.82983235 </i>
    <i name="e_wo_entrp">    -36.82983235 </i>
    <i name="e_0_energy">    -36.82983235 </i>
   </energy>
  </scstep>
  <scstep>
   <time name="diag">   78.45   78.47</time>
   <time name="diis">  220.50  220.55</time>
   <time name="orth">    3.10    3.10</time>
   <time name="total">  304.46  304.55</time>
   <energy>
    <i name="alphaZ">      6.18334092 </i>
    <i name="ewald">   2422.62110259 </i>
    <i name="hartreedc">  -2916.97152517 </i>
    <i name="XCdc">     57.06591303 </i>
    <i name="pawpsdc">    267.21399123 </i>
    <i name="pawaedc">   -272.31828520 </i>
    <i name="eentropy">     -0.00000000 </i>
    <i name="bandstr">   -189.24789666 </i>
    <i name="atom">    588.62352690 </i>
    <i name="e_fr_energy">    -36.82983235 </i>
    <i name="e_wo_entrp">    -36.82983235 </i>
    <i name="e_0_energy">    -36.82983235 </i>
   </energy>
  </scstep>
  <structure>
   <crystal>
    <varray name="basis" >
     <v>       4.40125169       0.00000000       0.00000000 </v>
     <v>       0.00000000       2.45546062       0.00000000 </v>
     <v>       0.00000000       0.00000000      19.50920204 </v>
    </varray>
    <i name="volume">    210.83790140 </i>
    <varray name="rec_basis" >
     <v>       0.22720809       0.00000000       0.00000000 </v>
     <v>       0.00000000       0.40725556       0.00000000 </v>
     <v>       0.00000000       0.00000000       0.05125786 </v>
    </varray>
   </crystal>
   <varray name="positions" >
    <v>       0.99938979       0.00000000       0.00000000 </v>
    <v>       0.16727688       0.50000000       0.00000000 </v>
    <v>       0.49938979       0.50000000       0.00000000 </v>
    <v>       0.66727688       0.00000000       0.00000000 </v>
   </varray>
  </structure>
  <varray name="forces" >
   <v>       0.00080561       0.00000000       0.00000000 </v>
   <v>      -0.00080561      -0.00000000       0.00000000 </v>
   <v>       0.00080561      -0.00000000       0.00000000 </v>
   <v>      -0.00080561       0.00000000       0.00000000 </v>
  </varray>
  <varray name="stress" >
   <v>     -48.97199746       0.00000000       0.00000000 </v>
   <v>       0.00000000      -0.01043649       0.00000000 </v>
   <v>       0.00000000       0.00000000      -0.01028627 </v>
  </varray>
  <energy>
   <i name="e_fr_energy">    -36.82983235 </i>
   <i name="e_wo_entrp">    -36.82983235 </i>
   <i name="e_0_energy">     -0.00000000 </i>
  </energy>
  <time name="totalsc"> 9198.60 9218.45</time>
 </calculation>
 <calculation>
  <scstep>
   <time name="dav">  308.70  308.89</time>
   <time name="total">  341.11  341.31</time>
   <energy>
    <i name="alphaZ">      6.18334092 </i>
    <i name="ewald">   2422.62209664 </i>
    <i name="hartreedc">  -2916.97195810 </i>
    <i name="XCdc">     57.06594117 </i>
    <i name="pawpsdc">    267.21399616 </i>
    <i name="pawaedc">   -272.31829007 </i>
    <i name="eentropy">     -0.00000000 </i>
    <i name="bandstr">   -189.24848580 </i>
    <i name="atom">    588.62352690 </i>
    <i name="e_fr_energy">    -36.82983219 </i>
    <i name="e_wo_entrp">    -36.82983219 </i>
    <i name="e_0_energy">    -36.82983219 </i>
   </energy>
  </scstep>
  <scstep>
   <time name="diag">   78.45   78.47</time>
   <time name="diis">  320.48  320.56</time>
   <time name="orth">    3.09    3.09</time>
   <time name="total">  434.48  434.59</time>
   <energy>
    <i name="e_fr_energy">    -36.82983221 </i>
    <i name="e_wo_entrp">    -36.82983220 </i>
    <i name="e_0_energy">    -36.82983220 </i>
   </energy>
  </scstep>
  <scstep>
   <time name="diag">   78.42   78.44</time>
   <time name="diis">  322.51  322.59</time>
   <time name="orth">    3.09    3.09</time>
   <time name="total">  436.25  436.37</time>
   <energy>
    <i name="e_fr_energy">    -36.82983220 </i>
    <i name="e_wo_entrp">    -36.82983220 </i>
    <i name="e_0_energy">    -36.82983220 </i>
   </energy>
  </scstep>
  <scstep>
   <time name="diag">   78.49   78.68</time>
   <time name="diis">  325.78  326.29</time>
   <time name="orth">    3.09    3.10</time>
   <time name="total">  439.65  440.47</time>
   <energy>
    <i name="e_fr_energy">    -36.82983220 </i>
    <i name="e_wo_entrp">    -36.82983220 </i>
    <i name="e_0_energy">    -36.82983220 </i>
   </energy>
  </scstep>
  <scstep>
   <time name="diag">   78.48   78.53</time>
   <time name="diis">  226.53  227.04</time>
   <time name="orth">    3.11    3.11</time>
   <time name="total">  340.11  340.77</time>
   <energy>
    <i name="e_fr_energy">    -36.82983220 </i>
    <i name="e_wo_entrp">    -36.82983220 </i>
    <i name="e_0_energy">    -36.82983220 </i>
   </energy>
  </scstep>
  <scstep>
   <time name="diag">   78.30   78.58</time>
   <time name="diis">  213.40  214.45</time>
   <time name="orth">    3.09    3.09</time>
   <time name="total">  297.20  298.54</time>
   <energy>
    <i name="alphaZ">      6.18334092 </i>
    <i name="ewald">   2422.62209664 </i>
    <i name="hartreedc">  -2916.97233841 </i>
    <i name="XCdc">     57.06595787 </i>
    <i name="pawpsdc">    267.21568435 </i>
    <i name="pawaedc">   -272.31998585 </i>
    <i name="eentropy">     -0.00000000 </i>
    <i name="bandstr">   -189.24811462 </i>
    <i name="atom">    588.62352690 </i>
    <i name="e_fr_energy">    -36.82983220 </i>
    <i name="e_wo_entrp">    -36.82983220 </i>
    <i name="e_0_energy">    -36.82983220 </i>
   </energy>
  </scstep>
  <structure>
   <crystal>
    <varray name="basis" >
     <v>       4.40125169       0.00000000       0.00000000 </v>
     <v>       0.00000000       2.45546062       0.00000000 </v>
     <v>       0.00000000       0.00000000      19.50920204 </v>
    </varray>
    <i name="volume">    210.83790140 </i>
    <varray name="rec_basis" >
     <v>       0.22720809       0.00000000       0.00000000 </v>
     <v>       0.00000000       0.40725556       0.00000000 </v>
     <v>       0.00000000       0.00000000       0.05125786 </v>
    </varray>
   </crystal>
   <varray name="positions" >
    <v>       0.99939862       0.00000000       0.00000000 </v>
    <v>       0.16726805       0.50000000       0.00000000 </v>
    <v>       0.49939862       0.50000000       0.00000000 </v>
    <v>       0.66726805       0.00000000       0.00000000 </v>
   </varray>
  </structure>
  <varray name="forces" >
   <v>      -0.00288623      -0.00000000      -0.00000000 </v>
   <v>       0.00288623       0.00000000       0.00000000 </v>
   <v>      -0.00288623       0.00000000      -0.00000000 </v>
   <v>       0.00288623      -0.00000000       0.00000000 </v>
  </varray>
  <varray name="stress" >
   <v>     -48.97641806       0.00000000       0.00000000 </v>
   <v>       0.00000000       0.00167688       0.00000000 </v>
   <v>       0.00000000       0.00000000      -0.01004695 </v>
  </varray>
  <energy>
   <i name="e_fr_energy">    -36.82983220 </i>
   <i name="e_wo_entrp">    -36.82983220 </i>
   <i name="e_0_energy">     -0.00000000 </i>
  </energy>
  <time name="totalsc"> 2391.58 2395.50</time>
 </calculation>
 <calculation>
  <scstep>
   <time name="dav">  317.58  319.38</time>
   <time name="total">  349.54  351.70</time>
   <energy>
    <i name="alphaZ">      6.18334092 </i>
    <i name="ewald">   2422.62131933 </i>
    <i name="hartreedc">  -2916.97201371 </i>
    <i name="XCdc">     57.06593612 </i>
    <i name="pawpsdc">    267.21569123 </i>
    <i name="pawaedc">   -272.31999287 </i>
    <i name="eentropy">     -0.00000000 </i>
    <i name="bandstr">   -189.24764030 </i>
    <i name="atom">    588.62352690 </i>
    <i name="e_fr_energy">    -36.82983238 </i>
    <i name="e_wo_entrp">    -36.82983238 </i>
    <i name="e_0_energy">    -36.82983238 </i>
   </energy>
  </scstep>
  <scstep>
   <time name="diag">   78.28   78.53</time>
   <time name="diis">  322.26  322.39</time>
   <time name="orth">    3.10    3.12</time>
   <time name="total">  435.79  436.25</time>
   <energy>
    <i name="e_fr_energy">    -36.82983238 </i>
    <i name="e_wo_entrp">    -36.82983238 </i>
    <i name="e_0_energy">    -36.82983238 </i>
   </energy>
  </scstep>
  <scstep>
   <time name="diag">   78.40   78.52</time>
   <time name="diis">  321.49  324.48</time>
   <time name="orth">    3.09    3.09</time>
   <time name="total">  435.24  438.57</time>
   <energy>
    <i name="e_fr_energy">    -36.82983237 </i>
    <i name="e_wo_entrp">    -36.82983237 </i>
    <i name="e_0_energy">    -36.82983237 </i>
   </energy>
  </scstep>
  <scstep>
   <time name="diag">   78.28   78.53</time>
   <time name="diis">  324.35  324.51</time>
   <time name="orth">    3.11    3.11</time>
   <time name="total">  437.65  438.26</time>
   <energy>
    <i name="e_fr_energy">    -36.82983237 </i>
    <i name="e_wo_entrp">    -36.82983237 </i>
    <i name="e_0_energy">    -36.82983237 </i>
   </energy>
  </scstep>
  <scstep>
   <time name="diag">   78.31   78.49</time>
   <time name="diis">  219.76  220.02</time>
   <time name="orth">    3.08    3.10</time>
   <time name="total">  333.76  334.34</time>
   <energy>
    <i name="e_fr_energy">    -36.82983237 </i>
    <i name="e_wo_entrp">    -36.82983237 </i>
    <i name="e_0_energy">    -36.82983237 </i>
   </energy>
  </scstep>
  <scstep>
   <time name="diag">   78.07   78.50</time>
   <time name="diis">  207.88  208.41</time>
   <time name="orth">    3.08    3.08</time>
   <time name="total">  291.49  292.44</time>
   <energy>
    <i name="alphaZ">      6.18334092 </i>
    <i name="ewald">   2422.62131933 </i>
    <i name="hartreedc">  -2916.97174517 </i>
    <i name="XCdc">     57.06592364 </i>
    <i name="pawpsdc">    267.21438435 </i>
    <i name="pawaedc">   -272.31868024 </i>
    <i name="eentropy">     -0.00000000 </i>
    <i name="bandstr">   -189.24790211 </i>
    <i name="atom">    588.62352690 </i>
    <i name="e_fr_energy">    -36.82983237 </i>
    <i name="e_wo_entrp">    -36.82983237 </i>
    <i name="e_0_energy">    -36.82983237 </i>
   </energy>
  </scstep>
  <structure>
   <crystal>
    <varray name="basis" >
     <v>       4.40125169       0.00000000       0.00000000 </v>
     <v>       0.00000000       2.45546062       0.00000000 </v>
     <v>       0.00000000       0.00000000      19.50920204 </v>
    </varray>
    <i name="volume">    210.83790140 </i>
    <varray name="rec_basis" >
     <v>       0.22720809       0.00000000       0.00000000 </v>
     <v>       0.00000000       0.40725556       0.00000000 </v>
     <v>       0.00000000       0.00000000       0.05125786 </v>
    </varray>
   </crystal>
   <varray name="positions" >
    <v>       0.99939171       0.00000000      -0.00000000 </v>
    <v>       0.16727495       0.50000000       0.00000000 </v>
    <v>       0.49939171       0.50000000      -0.00000000 </v>
    <v>       0.66727495       0.00000000       0.00000000 </v>
   </varray>
  </structure>
  <varray name="forces" >
   <v>      -0.00000509      -0.00000000      -0.00000000 </v>
   <v>       0.00000509      -0.00000000       0.00000000 </v>
   <v>      -0.00000509       0.00000000      -0.00000000 </v>
   <v>       0.00000509      -0.00000000       0.00000000 </v>
  </varray>
  <varray name="stress" >
   <v>     -48.97305885       0.00000000       0.00000000 </v>
   <v>       0.00000000      -0.00766149       0.00000000 </v>
   <v>       0.00000000       0.00000000      -0.01015906 </v>
  </varray>
  <energy>
   <i name="e_fr_energy">    -36.82983237 </i>
   <i name="e_wo_entrp">    -36.82983237 </i>
   <i name="e_0_energy">     -0.00000000 </i>
  </energy>
  <time name="totalsc"> 2387.93 2396.64</time>
 </calculation>
 <calculation>
  <scstep>
   <time name="dav">  256.45  257.58</time>
   <time name="total">  288.65  290.14</time>
   <energy>
    <i name="alphaZ">      6.18334092 </i>
    <i name="ewald">   2422.62131796 </i>
    <i name="hartreedc">  -2916.97173825 </i>
    <i name="XCdc">     57.06592340 </i>
    <i name="pawpsdc">    267.21438101 </i>
    <i name="pawaedc">   -272.31867683 </i>
    <i name="eentropy">     -0.00000000 </i>
    <i name="bandstr">   -189.24790749 </i>
    <i name="atom">    588.62352690 </i>
    <i name="e_fr_energy">    -36.82983237 </i>
    <i name="e_wo_entrp">    -36.82983237 </i>
    <i name="e_0_energy">    -36.82983237 </i>
   </energy>
  </scstep>
  <scstep>
   <time name="diag">   77.76   78.50</time>
   <time name="diis">  170.88  172.63</time>
   <time name="orth">    3.08    3.10</time>
   <time name="total">  283.99  286.85</time>
   <energy>
    <i name="e_fr_energy">    -36.82983237 </i>
    <i name="e_wo_entrp">    -36.82983237 </i>
    <i name="e_0_energy">    -36.82983237 </i>
   </energy>
  </scstep>
  <scstep>
   <time name="diag">   77.67   78.47</time>
   <time name="diis">  167.56  167.94</time>
   <time name="orth">    3.09    3.09</time>
   <time name="total">  280.81  282.11</time>
   <energy>
    <i name="e_fr_energy">    -36.82983237 </i>
    <i name="e_wo_entrp">    -36.82983237 </i>
    <i name="e_0_energy">    -36.82983237 </i>
   </energy>
  </scstep>
  <scstep>
   <time name="diag">   78.39   78.48</time>
   <time name="diis">  162.47  162.87</time>
   <time name="orth">    3.09    3.10</time>
   <time name="total">  276.56  277.13</time>
   <energy>
    <i name="e_fr_energy">    -36.82983237 </i>
    <i name="e_wo_entrp">    -36.82983237 </i>
    <i name="e_0_energy">    -36.82983237 </i>
   </energy>
  </scstep>
  <scstep>
   <time name="diag">   78.36   78.54</time>
   <time name="diis">  159.31  159.43</time>
   <time name="orth">    3.09    3.09</time>
   <time name="total">  243.17  243.50</time>
   <energy>
    <i name="alphaZ">      6.18334092 </i>
    <i name="ewald">   2422.62131796 </i>
    <i name="hartreedc">  -2916.97172024 </i>
    <i name="XCdc">     57.06592320 </i>
    <i name="pawpsdc">    267.21437657 </i>
    <i name="pawaedc">   -272.31867239 </i>
    <i name="eentropy">     -0.00000000 </i>
    <i name="bandstr">   -189.24792529 </i>
    <i name="atom">    588.62352690 </i>
    <i name="e_fr_energy">    -36.82983237 </i>
    <i name="e_wo_entrp">    -36.82983237 </i>
    <i name="e_0_energy">    -36.82983237 </i>
   </energy>
  </scstep>
  <structure>
   <crystal>
    <varray name="basis" >
     <v>       4.40125169       0.00000000       0.00000000 </v>
     <v>       0.00000000       2.45546062       0.00000000 </v>
     <v>       0.00000000       0.00000000      19.50920204 </v>
    </varray>
    <i name="volume">    210.83790140 </i>
    <varray name="rec_basis" >
     <v>       0.22720809       0.00000000       0.00000000 </v>
     <v>       0.00000000       0.40725556       0.00000000 </v>
     <v>       0.00000000       0.00000000       0.05125786 </v>
    </varray>
   </crystal>
   <varray name="positions" >
    <v>       0.99939170       0.00000000      -0.00000000 </v>
    <v>       0.16727497       0.50000000       0.00000000 </v>
    <v>       0.49939170       0.50000000      -0.00000000 </v>
    <v>       0.66727497       0.00000000       0.00000000 </v>
   </varray>
  </structure>
  <varray name="forces" >
   <v>       0.00000742      -0.00000000       0.00000000 </v>
   <v>      -0.00000742       0.00000000       0.00000000 </v>
   <v>       0.00000742       0.00000000       0.00000000 </v>
   <v>      -0.00000742      -0.00000000       0.00000000 </v>
  </varray>
  <varray name="stress" >
   <v>     -48.97294936       0.00000000       0.00000000 </v>
   <v>       0.00000000      -0.00778195       0.00000000 </v>
   <v>       0.00000000       0.00000000      -0.01012658 </v>
  </varray>
  <energy>
   <i name="e_fr_energy">    -36.82983237 </i>
   <i name="e_wo_entrp">    -36.82983237 </i>
   <i name="e_0_energy">     -0.00000000 </i>
  </energy>
  <time name="totalsc"> 1477.98 1484.73</time>
 </calculation>
 <calculation>
  <scstep>
   <time name="dav">  243.15  244.55</time>
   <time name="total">  275.37  276.86</time>
   <energy>
    <i name="alphaZ">      6.18334092 </i>
    <i name="ewald">   2422.62131877 </i>
    <i name="hartreedc">  -2916.97171985 </i>
    <i name="XCdc">     57.06592321 </i>
    <i name="pawpsdc">    267.21437648 </i>
    <i name="pawaedc">   -272.31867230 </i>
    <i name="eentropy">     -0.00000000 </i>
    <i name="bandstr">   -189.24792651 </i>
    <i name="atom">    588.62352690 </i>
    <i name="e_fr_energy">    -36.82983237 </i>
    <i name="e_wo_entrp">    -36.82983237 </i>
    <i name="e_0_energy">    -36.82983237 </i>
   </energy>
  </scstep>
  <scstep>
   <time name="diag">   78.19   78.61</time>
   <time name="diis">  146.43  146.73</time>
   <time name="orth">    3.11    3.11</time>
   <time name="total">  259.81  260.62</time>
   <energy>
    <i name="e_fr_energy">    -36.82983237 </i>
    <i name="e_wo_entrp">    -36.82983237 </i>
    <i name="e_0_energy">    -36.82983237 </i>
   </energy>
  </scstep>
  <scstep>
   <time name="diag">   78.09   78.61</time>
   <time name="diis">  145.08  145.60</time>
   <time name="orth">    3.10    3.12</time>
   <time name="total">  258.36  259.58</time>
   <energy>
    <i name="e_fr_energy">    -36.82983237 </i>
    <i name="e_wo_entrp">    -36.82983237 </i>
    <i name="e_0_energy">    -36.82983237 </i>
   </energy>
  </scstep>
  <scstep>
   <time name="diag">   78.42   78.58</time>
   <time name="diis">  144.59  144.95</time>
   <time name="orth">    3.11    3.11</time>
   <time name="total">  258.01  258.70</time>
   <energy>
    <i name="e_fr_energy">    -36.82983237 </i>
    <i name="e_wo_entrp">    -36.82983237 </i>
    <i name="e_0_energy">    -36.82983237 </i>
   </energy>
  </scstep>
  <scstep>
   <time name="diag">   78.42   78.57</time>
   <time name="diis">  144.85  145.09</time>
   <time name="orth">    3.09    3.09</time>
   <time name="total">  228.80  229.19</time>
   <energy>
    <i name="alphaZ">      6.18334092 </i>
    <i name="ewald">   2422.62131877 </i>
    <i name="hartreedc">  -2916.97172148 </i>
    <i name="XCdc">     57.06592329 </i>
    <i name="pawpsdc">    267.21437826 </i>
    <i name="pawaedc">   -272.31867410 </i>
    <i name="eentropy">     -0.00000000 </i>
    <i name="bandstr">   -189.24792495 </i>
    <i name="atom">    588.62352690 </i>
    <i name="e_fr_energy">    -36.82983237 </i>
    <i name="e_wo_entrp">    -36.82983237 </i>
    <i name="e_0_energy">    -36.82983237 </i>
   </energy>
  </scstep>
  <structure>
   <crystal>
    <varray name="basis" >
     <v>       4.40125169       0.00000000       0.00000000 </v>
     <v>       0.00000000       2.45546062       0.00000000 </v>
     <v>       0.00000000       0.00000000      19.50920204 </v>
    </varray>
    <i name="volume">    210.83790140 </i>
    <varray name="rec_basis" >
     <v>       0.22720809       0.00000000       0.00000000 </v>
     <v>       0.00000000       0.40725556       0.00000000 </v>
     <v>       0.00000000       0.00000000       0.05125786 </v>
    </varray>
   </crystal>
   <varray name="positions" >
    <v>       0.99939171      -0.00000000      -0.00000000 </v>
    <v>       0.16727496       0.50000000       0.00000000 </v>
    <v>       0.49939171       0.50000000      -0.00000000 </v>
    <v>       0.66727496      -0.00000000       0.00000000 </v>
   </varray>
  </structure>
  <varray name="forces" >
   <v>      -0.00000021      -0.00000000       0.00000000 </v>
   <v>       0.00000021      -0.00000000       0.00000000 </v>
   <v>      -0.00000021       0.00000000       0.00000000 </v>
   <v>       0.00000021       0.00000000       0.00000000 </v>
  </varray>
  <varray name="stress" >
   <v>     -48.97297966       0.00000000       0.00000000 </v>
   <v>       0.00000000      -0.00774702       0.00000000 </v>
   <v>       0.00000000       0.00000000      -0.01011463 </v>
  </varray>
  <energy>
   <i name="e_fr_energy">    -36.82983237 </i>
   <i name="e_wo_entrp">    -36.82983237 </i>
   <i name="e_0_energy">     -0.00000000 </i>
  </energy>
  <time name="totalsc"> 1379.04 1383.97</time>
  <eigenvalues>
   <array>
    <dimension dim="1">band</dimension>
    <dimension dim="2">kpoint</dimension>
    <dimension dim="3">spin</dimension>
    <field>eigene</field>
    <field>occ</field>
    <set>
     <set comment="spin 1">
      <set comment="kpoint 1">
       <r>  -22.0463    1.0000 </r>
       <r>  -17.3012    1.0000 </r>
       <r>  -15.8018    1.0000 </r>
       <r>  -10.1989    1.0000 </r>
       <r>   -8.7386    1.0000 </r>
       <r>   -6.0457    1.0000 </r>
       <r>   -5.7180    1.0000 </r>
       <r>   -5.3783    1.0000 </r>
       <r>   -1.2047    0.0000 </r>
       <r>    0.5491    0.0000 </r>
       <r>    1.3465    0.0000 </r>
       <r>    1.7422    0.0000 </r>
      </set>
      <set comment="kpoint 2">
       <r>  -22.0367    1.0000 </r>
       <r>  -17.4124    1.0000 </r>
       <r>  -15.6757    1.0000 </r>
       <r>  -10.1875    1.0000 </r>
       <r>   -8.7293    1.0000 </r>
       <r>   -6.0903    1.0000 </r>
       <r>   -5.7376    1.0000 </r>
       <r>   -5.4356    1.0000 </r>
       <r>   -1.1318    0.0000 </r>
       <r>    0.5621    0.0000 </r>
       <r>    1.3598    0.0000 </r>
       <r>    1.7556    0.0000 </r>
      </set>
      <set comment="kpoint 3">
       <r>  -22.0077    1.0000 </r>
       <r>  -17.6744    1.0000 </r>
       <r>  -15.3690    1.0000 </r>
       <r>  -10.1531    1.0000 </r>
       <r>   -8.7015    1.0000 </r>
       <r>   -6.2218    1.0000 </r>
       <r>   -5.7953    1.0000 </r>
       <r>   -5.5960    1.0000 </r>
       <r>   -0.9246    0.0000 </r>
       <r>    0.6013    0.0000 </r>
       <r>    1.3996    0.0000 </r>
       <r>    1.7959    0.0000 </r>
      </set>
      <set comment="kpoint 4">
       <r>  -21.9594    1.0000 </r>
       <r>  -17.9956    1.0000 </r>
       <r>  -14.9735    1.0000 </r>
       <r>  -10.0960    1.0000 </r>
       <r>   -8.6552    1.0000 </r>
       <r>   -6.4343    1.0000 </r>
       <r>   -5.8884    1.0000 </r>
       <r>   -5.8335    1.0000 </r>
       <r>   -0.6096    0.0000 </r>
       <r>    0.6667    0.0000 </r>
       <r>    1.4658    0.0000 </r>
       <r>    1.8630    0.0000 </r>
      </set>
      <set comment="kpoint 5">
       <r>  -21.8918    1.0000 </r>
       <r>  -18.3335    1.0000 </r>
       <r>  -14.5323    1.0000 </r>
       <r>  -10.0161    1.0000 </r>
       <r>   -8.5908    1.0000 </r>
       <r>   -6.7187    1.0000 </r>
       <r>   -6.1206    1.0000 </r>
       <r>   -6.0125    1.0000 </r>
       <r>   -0.2152    0.0000 </r>
       <r>    0.7582    0.0000 </r>
       <r>    1.5585    0.0000 </r>
       <r>    1.9570    0.0000 </r>
      </set>
      <set comment="kpoint 6">
       <r>  -21.8051    1.0000 </r>
       <r>  -18.6708    1.0000 </r>
       <r>  -14.0629    1.0000 </r>
       <r>   -9.9136    1.0000 </r>
       <r>   -8.5087    1.0000 </r>
       <r>   -7.0647    1.0000 </r>
       <r>   -6.4354    1.0000 </r>
       <r>   -6.1624    1.0000 </r>
       <r>    0.2357    0.0000 </r>
       <r>    0.8760    0.0000 </r>
       <r>    1.6777    0.0000 </r>
       <r>    2.0779    0.0000 </r>
      </set>
      <set comment="kpoint 7">
       <r>  -21.6992    1.0000 </r>
       <r>  -18.9999    1.0000 </r>
       <r>  -13.5739    1.0000 </r>
       <r>   -9.7888    1.0000 </r>
       <r>   -8.4092    1.0000 </r>
       <r>   -7.4617    1.0000 </r>
       <r>   -6.7626    1.0000 </r>
       <r>   -6.3325    1.0000 </r>
       <r>    0.7262    0.0000 </r>
       <r>    1.0199    0.0000 </r>
       <r>    1.8232    0.0000 </r>
       <r>    2.2257    0.0000 </r>
      </set>
      <set comment="kpoint 8">
       <r>  -21.5742    1.0000 </r>
       <r>  -19.3170    1.0000 </r>
       <r>  -13.0698    1.0000 </r>
       <r>   -9.6418    1.0000 </r>
       <r>   -8.2932    1.0000 </r>
       <r>   -7.8998    1.0000 </r>
       <r>   -7.0919    1.0000 </r>
       <r>   -6.5172    1.0000 </r>
       <r>    1.1901    0.0000 </r>
       <r>    1.2439    0.0000 </r>
       <r>    1.9950    0.0000 </r>
       <r>    2.4003    0.0000 </r>
      </set>
      <set comment="kpoint 9">
       <r>  -21.4303    1.0000 </r>
       <r>  -19.6199    1.0000 </r>
       <r>  -12.5542    1.0000 </r>
       <r>   -9.4730    1.0000 </r>
       <r>   -8.3699    1.0000 </r>
       <r>   -8.1613    1.0000 </r>
       <r>   -7.4164    1.0000 </r>
       <r>   -6.7115    1.0000 </r>
       <r>    1.3864    0.0000 </r>
       <r>    1.7792    0.0000 </r>
       <r>    2.1927    0.0000 </r>
       <r>    2.6018    0.0000 </r>
      </set>
      <set comment="kpoint 10">
       <r>  -21.2675    1.0000 </r>
       <r>  -19.9073    1.0000 </r>
       <r>  -12.0299    1.0000 </r>
       <r>   -9.2827    1.0000 </r>
       <r>   -8.8643    1.0000 </r>
       <r>   -8.0146    1.0000 </r>
       <r>   -7.7312    1.0000 </r>
       <r>   -6.9106    1.0000 </r>
       <r>    1.6089    0.0000 </r>
       <r>    2.3228    0.0000 </r>
       <r>    2.4162    0.0000 </r>
       <r>    2.8301    0.0000 </r>
      </set>
      <set comment="kpoint 11">
       <r>  -21.0861    1.0000 </r>
       <r>  -20.1781    1.0000 </r>
       <r>  -11.4993    1.0000 </r>
       <r>   -9.3762    1.0000 </r>
       <r>   -9.0716    1.0000 </r>
       <r>   -8.0332    1.0000 </r>
       <r>   -7.8542    1.0000 </r>
       <r>   -7.1104    1.0000 </r>
       <r>    1.8574    0.0000 </r>
       <r>    2.6644    0.0000 </r>
       <r>    2.8612    0.0000 </r>
       <r>    3.0853    0.0000 </r>
      </set>
      <set comment="kpoint 12">
       <r>  -20.8861    1.0000 </r>
       <r>  -20.4318    1.0000 </r>
       <r>  -10.9654    1.0000 </r>
       <r>   -9.9001    1.0000 </r>
       <r>   -8.8401    1.0000 </r>
       <r>   -8.3197    1.0000 </r>
       <r>   -7.6817    1.0000 </r>
       <r>   -7.3075    1.0000 </r>
       <r>    2.1319    0.0000 </r>
       <r>    2.7583    0.0000 </r>
       <r>    2.9349    0.0000 </r>
       <r>    3.3128    0.0000 </r>
      </set>
      <set comment="kpoint 13">
       <r>  -20.6680    1.0000 </r>
       <r>  -20.6680    1.0000 </r>
       <r>  -10.4312    1.0000 </r>
       <r>  -10.4312    1.0000 </r>
       <r>   -8.5891    1.0000 </r>
       <r>   -8.5891    1.0000 </r>
       <r>   -7.4987    1.0000 </r>
       <r>   -7.4987    1.0000 </r>
       <r>    2.4322    0.0000 </r>
       <r>    2.4322    0.0000 </r>
       <r>    3.2146    0.0000 </r>
       <r>    3.2146    0.0000 </r>
      </set>
      <set comment="kpoint 14">
       <r>  -22.0325    1.0000 </r>
       <r>  -17.2892    1.0000 </r>
       <r>  -15.7900    1.0000 </r>
       <r>  -10.1825    1.0000 </r>
       <r>   -8.8023    1.0000 </r>
       <r>   -6.0710    1.0000 </r>
       <r>   -5.7775    1.0000 </r>
       <r>   -5.3617    1.0000 </r>
       <r>   -1.2068    0.0000 </r>
       <r>    0.5678    0.0000 </r>
       <r>    1.3655    0.0000 </r>
       <r>    1.7614    0.0000 </r>
      </set>
      <set comment="kpoint 15">
       <r>  -22.0228    1.0000 </r>
       <r>  -17.4002    1.0000 </r>
       <r>  -15.6640    1.0000 </r>
       <r>  -10.1710    1.0000 </r>
       <r>   -8.7930    1.0000 </r>
       <r>   -6.1160    1.0000 </r>
       <r>   -5.7960    1.0000 </r>
       <r>   -5.4190    1.0000 </r>
       <r>   -1.1339    0.0000 </r>
       <r>    0.5809    0.0000 </r>
       <r>    1.3787    0.0000 </r>
       <r>    1.7748    0.0000 </r>
      </set>
      <set comment="kpoint 16">
       <r>  -21.9938    1.0000 </r>
       <r>  -17.6621    1.0000 </r>
       <r>  -15.3576    1.0000 </r>
       <r>  -10.1367    1.0000 </r>
       <r>   -8.7651    1.0000 </r>
       <r>   -6.2480    1.0000 </r>
       <r>   -5.8517    1.0000 </r>
       <r>   -5.5797    1.0000 </r>
       <r>   -0.9268    0.0000 </r>
       <r>    0.6201    0.0000 </r>
       <r>    1.4185    0.0000 </r>
       <r>    1.8151    0.0000 </r>
      </set>
      <set comment="kpoint 17">
       <r>  -21.9456    1.0000 </r>
       <r>  -17.9831    1.0000 </r>
       <r>  -14.9626    1.0000 </r>
       <r>  -10.0796    1.0000 </r>
       <r>   -8.7188    1.0000 </r>
       <r>   -6.4596    1.0000 </r>
       <r>   -5.9431    1.0000 </r>
       <r>   -5.8175    1.0000 </r>
       <r>   -0.6120    0.0000 </r>
       <r>    0.6855    0.0000 </r>
       <r>    1.4848    0.0000 </r>
       <r>    1.8822    0.0000 </r>
      </set>
      <set comment="kpoint 18">
       <r>  -21.8780    1.0000 </r>
       <r>  -18.3207    1.0000 </r>
       <r>  -14.5219    1.0000 </r>
       <r>   -9.9997    1.0000 </r>
       <r>   -8.6543    1.0000 </r>
       <r>   -6.7418    1.0000 </r>
       <r>   -6.1048    1.0000 </r>
       <r>   -6.0666    1.0000 </r>
       <r>   -0.2181    0.0000 </r>
       <r>    0.7770    0.0000 </r>
       <r>    1.5775    0.0000 </r>
       <r>    1.9762    0.0000 </r>
      </set>
      <set comment="kpoint 19">
       <r>  -21.7913    1.0000 </r>
       <r>  -18.6578    1.0000 </r>
       <r>  -14.0531    1.0000 </r>
       <r>   -9.8973    1.0000 </r>
       <r>   -8.5720    1.0000 </r>
       <r>   -7.0845    1.0000 </r>
       <r>   -6.4197    1.0000 </r>
       <r>   -6.2166    1.0000 </r>
       <r>    0.2320    0.0000 </r>
       <r>    0.8948    0.0000 </r>
       <r>    1.6966    0.0000 </r>
       <r>    2.0971    0.0000 </r>
      </set>
      <set comment="kpoint 20">
       <r>  -21.6854    1.0000 </r>
       <r>  -18.9868    1.0000 </r>
       <r>  -13.5647    1.0000 </r>
       <r>   -9.7725    1.0000 </r>
       <r>   -8.4724    1.0000 </r>
       <r>   -7.4779    1.0000 </r>
       <r>   -6.7470    1.0000 </r>
       <r>   -6.3874    1.0000 </r>
       <r>    0.7215    0.0000 </r>
       <r>    1.0387    0.0000 </r>
       <r>    1.8421    0.0000 </r>
       <r>    2.2449    0.0000 </r>
      </set>
      <set comment="kpoint 21">
       <r>  -21.5604    1.0000 </r>
       <r>  -19.3038    1.0000 </r>
       <r>  -13.0615    1.0000 </r>
       <r>   -9.6255    1.0000 </r>
       <r>   -8.3562    1.0000 </r>
       <r>   -7.9122    1.0000 </r>
       <r>   -7.0763    1.0000 </r>
       <r>   -6.5732    1.0000 </r>
       <r>    1.2089    0.0000 </r>
       <r>    1.2380    0.0000 </r>
       <r>    2.0139    0.0000 </r>
       <r>    2.4195    0.0000 </r>
      </set>
      <set comment="kpoint 22">
       <r>  -21.4165    1.0000 </r>
       <r>  -19.6066    1.0000 </r>
       <r>  -12.5469    1.0000 </r>
       <r>   -9.4568    1.0000 </r>
       <r>   -8.3788    1.0000 </r>
       <r>   -8.2240    1.0000 </r>
       <r>   -7.4007    1.0000 </r>
       <r>   -6.7686    1.0000 </r>
       <r>    1.4052    0.0000 </r>
       <r>    1.7718    0.0000 </r>
       <r>    2.2117    0.0000 </r>
       <r>    2.6210    0.0000 </r>
      </set>
      <set comment="kpoint 23">
       <r>  -21.2538    1.0000 </r>
       <r>  -19.8939    1.0000 </r>
       <r>  -12.0236    1.0000 </r>
       <r>   -9.2666    1.0000 </r>
       <r>   -8.8700    1.0000 </r>
       <r>   -8.0769    1.0000 </r>
       <r>   -7.7156    1.0000 </r>
       <r>   -6.9687    1.0000 </r>
       <r>    1.6277    0.0000 </r>
       <r>    2.3140    0.0000 </r>
       <r>    2.4351    0.0000 </r>
       <r>    2.8493    0.0000 </r>
      </set>
      <set comment="kpoint 24">
       <r>  -21.0724    1.0000 </r>
       <r>  -20.1646    1.0000 </r>
       <r>  -11.4943    1.0000 </r>
       <r>   -9.3791    1.0000 </r>
       <r>   -9.0555    1.0000 </r>
       <r>   -8.0174    1.0000 </r>
       <r>   -7.9161    1.0000 </r>
       <r>   -7.1696    1.0000 </r>
       <r>    1.8762    0.0000 </r>
       <r>    2.6834    0.0000 </r>
       <r>    2.8517    0.0000 </r>
       <r>    3.1045    0.0000 </r>
      </set>
      <set comment="kpoint 25">
       <r>  -20.8725    1.0000 </r>
       <r>  -20.4183    1.0000 </r>
       <r>  -10.9620    1.0000 </r>
       <r>   -9.9006    1.0000 </r>
       <r>   -8.8241    1.0000 </r>
       <r>   -8.3039    1.0000 </r>
       <r>   -7.7431    1.0000 </r>
       <r>   -7.3675    1.0000 </r>
       <r>    2.1507    0.0000 </r>
       <r>    2.7772    0.0000 </r>
       <r>    2.9539    0.0000 </r>
       <r>    3.3128    0.0000 </r>
      </set>
      <set comment="kpoint 26">
       <r>  -20.6544    1.0000 </r>
       <r>  -20.6544    1.0000 </r>
       <r>  -10.4295    1.0000 </r>
       <r>  -10.4295    1.0000 </r>
       <r>   -8.5732    1.0000 </r>
       <r>   -8.5732    1.0000 </r>
       <r>   -7.5595    1.0000 </r>
       <r>   -7.5595    1.0000 </r>
       <r>    2.4511    0.0000 </r>
       <r>    2.4511    0.0000 </r>
       <r>    3.2330    0.0000 </r>
       <r>    3.2330    0.0000 </r>
      </set>
      <set comment="kpoint 27">
       <r>  -21.9909    1.0000 </r>
       <r>  -17.2530    1.0000 </r>
       <r>  -15.7546    1.0000 </r>
       <r>  -10.1332    1.0000 </r>
       <r>   -8.9880    1.0000 </r>
       <r>   -6.1467    1.0000 </r>
       <r>   -5.9509    1.0000 </r>
       <r>   -5.3116    1.0000 </r>
       <r>   -1.2142    0.0000 </r>
       <r>    0.6242    0.0000 </r>
       <r>    1.4223    0.0000 </r>
       <r>    1.8190    0.0000 </r>
      </set>
      <set comment="kpoint 28">
       <r>  -21.9813    1.0000 </r>
       <r>  -17.3637    1.0000 </r>
       <r>  -15.6291    1.0000 </r>
       <r>  -10.1218    1.0000 </r>
       <r>   -8.9787    1.0000 </r>
       <r>   -6.1949    1.0000 </r>
       <r>   -5.9645    1.0000 </r>
       <r>   -5.3693    1.0000 </r>
       <r>   -1.1412    0.0000 </r>
       <r>    0.6372    0.0000 </r>
       <r>    1.4356    0.0000 </r>
       <r>    1.8324    0.0000 </r>
      </set>
      <set comment="kpoint 29">
       <r>  -21.9523    1.0000 </r>
       <r>  -17.6249    1.0000 </r>
       <r>  -15.3238    1.0000 </r>
       <r>  -10.0875    1.0000 </r>
       <r>   -8.9507    1.0000 </r>
       <r>   -6.3305    1.0000 </r>
       <r>   -6.0116    1.0000 </r>
       <r>   -5.5308    1.0000 </r>
       <r>   -0.9342    0.0000 </r>
       <r>    0.6764    0.0000 </r>
       <r>    1.4753    0.0000 </r>
       <r>    1.8727    0.0000 </r>
      </set>
      <set comment="kpoint 30">
       <r>  -21.9040    1.0000 </r>
       <r>  -17.9453    1.0000 </r>
       <r>  -14.9301    1.0000 </r>
       <r>  -10.0304    1.0000 </r>
       <r>   -8.9042    1.0000 </r>
       <r>   -6.5405    1.0000 </r>
       <r>   -6.0974    1.0000 </r>
       <r>   -5.7694    1.0000 </r>
       <r>   -0.6201    0.0000 </r>
       <r>    0.7418    0.0000 </r>
       <r>    1.5416    0.0000 </r>
[...]
       <r>   -9.3806    1.0000 </r>
       <r>   -5.4975    1.0000 </r>
       <r>   -5.4975    1.0000 </r>
       <r>   -0.5084    0.0000 </r>
       <r>   -0.5084    0.0000 </r>
       <r>    4.0073    0.0000 </r>
       <r>    4.0073    0.0000 </r>
      </set>
      <set comment="kpoint 209">
       <r>  -18.5807    1.0000 </r>
       <r>  -16.7595    1.0000 </r>
       <r>  -14.2461    1.0000 </r>
       <r>  -12.5724    1.0000 </r>
       <r>  -12.2726    1.0000 </r>
       <r>  -10.7635    1.0000 </r>
       <r>   -6.2480    1.0000 </r>
       <r>   -4.3738    1.0000 </r>
       <r>   -1.2466    0.0000 </r>
       <r>    0.9102    0.0000 </r>
       <r>    5.3267    0.0000 </r>
       <r>    6.0928    0.0000 </r>
      </set>
      <set comment="kpoint 210">
       <r>  -18.5716    1.0000 </r>
       <r>  -16.7525    1.0000 </r>
       <r>  -14.3099    1.0000 </r>
       <r>  -12.6326    1.0000 </r>
       <r>  -12.2012    1.0000 </r>
       <r>  -10.7059    1.0000 </r>
       <r>   -6.2398    1.0000 </r>
       <r>   -4.3780    1.0000 </r>
       <r>   -1.2524    0.0000 </r>
       <r>    0.8881    0.0000 </r>
       <r>    5.3395    0.0000 </r>
       <r>    6.1078    0.0000 </r>
      </set>
      <set comment="kpoint 211">
       <r>  -18.5443    1.0000 </r>
       <r>  -16.7318    1.0000 </r>
       <r>  -14.4773    1.0000 </r>
       <r>  -12.7927    1.0000 </r>
       <r>  -12.0108    1.0000 </r>
       <r>  -10.5540    1.0000 </r>
       <r>   -6.2153    1.0000 </r>
       <r>   -4.3911    1.0000 </r>
       <r>   -1.2682    0.0000 </r>
       <r>    0.8233    0.0000 </r>
       <r>    5.3776    0.0000 </r>
       <r>    6.1523    0.0000 </r>
      </set>
      <set comment="kpoint 212">
       <r>  -18.4988    1.0000 </r>
       <r>  -16.6988    1.0000 </r>
       <r>  -14.7035    1.0000 </r>
       <r>  -13.0145    1.0000 </r>
       <r>  -11.7461    1.0000 </r>
       <r>  -10.3481    1.0000 </r>
       <r>   -6.1747    1.0000 </r>
       <r>   -4.4143    1.0000 </r>
       <r>   -1.2901    0.0000 </r>
       <r>    0.7200    0.0000 </r>
       <r>    5.4400    0.0000 </r>
       <r>    6.2319    0.0000 </r>
      </set>
      <set comment="kpoint 213">
       <r>  -18.4353    1.0000 </r>
       <r>  -16.6566    1.0000 </r>
       <r>  -14.9527    1.0000 </r>
       <r>  -13.2681    1.0000 </r>
       <r>  -11.4420    1.0000 </r>
       <r>  -10.1212    1.0000 </r>
       <r>   -6.1185    1.0000 </r>
       <r>   -4.4494    1.0000 </r>
       <r>   -1.3121    0.0000 </r>
       <r>    0.5841    0.0000 </r>
       <r>    5.5129    0.0000 </r>
       <r>    5.7304    0.0000 </r>
      </set>
      <set comment="kpoint 214">
       <r>  -18.3540    1.0000 </r>
       <r>  -16.6114    1.0000 </r>
       <r>  -15.1998    1.0000 </r>
       <r>  -13.5354    1.0000 </r>
       <r>  -11.1206    1.0000 </r>
       <r>   -9.8957    1.0000 </r>
       <r>   -6.0474    1.0000 </r>
       <r>   -4.4984    1.0000 </r>
       <r>   -1.3272    0.0000 </r>
       <r>    0.4229    0.0000 </r>
       <r>    5.2145    0.0000 </r>
       <r>    5.6636    0.0000 </r>
      </set>
      <set comment="kpoint 215">
       <r>  -18.2551    1.0000 </r>
       <r>  -16.5757    1.0000 </r>
       <r>  -15.4214    1.0000 </r>
       <r>  -13.8058    1.0000 </r>
       <r>  -10.7965    1.0000 </r>
       <r>   -9.6875    1.0000 </r>
       <r>   -5.9621    1.0000 </r>
       <r>   -4.5629    1.0000 </r>
       <r>   -1.3288    0.0000 </r>
       <r>    0.2438    0.0000 </r>
       <r>    4.7945    0.0000 </r>
       <r>    5.8000    0.0000 </r>
      </set>
      <set comment="kpoint 216">
       <r>  -18.1391    1.0000 </r>
       <r>  -16.5735    1.0000 </r>
       <r>  -15.5875    1.0000 </r>
       <r>  -14.0729    1.0000 </r>
       <r>  -10.4810    1.0000 </r>
       <r>   -9.5089    1.0000 </r>
       <r>   -5.8638    1.0000 </r>
       <r>   -4.6436    1.0000 </r>
       <r>   -1.3109    0.0000 </r>
       <r>    0.0538    0.0000 </r>
       <r>    4.4357    0.0000 </r>
       <r>    5.3912    0.0000 </r>
      </set>
      <set comment="kpoint 217">
       <r>  -18.0064    1.0000 </r>
       <r>  -16.6351    1.0000 </r>
       <r>  -15.6642    1.0000 </r>
       <r>  -14.3321    1.0000 </r>
       <r>  -10.1836    1.0000 </r>
       <r>   -9.3704    1.0000 </r>
       <r>   -5.7539    1.0000 </r>
       <r>   -4.7403    1.0000 </r>
       <r>   -1.2695    0.0000 </r>
       <r>   -0.1406    0.0000 </r>
       <r>    4.1503    0.0000 </r>
       <r>    4.9543    0.0000 </r>
      </set>
      <set comment="kpoint 218">
       <r>  -17.8577    1.0000 </r>
       <r>  -16.7667    1.0000 </r>
       <r>  -15.6429    1.0000 </r>
       <r>  -14.5804    1.0000 </r>
       <r>   -9.9135    1.0000 </r>
       <r>   -9.2804    1.0000 </r>
       <r>   -5.6341    1.0000 </r>
       <r>   -4.8511    1.0000 </r>
       <r>   -1.2026    0.0000 </r>
       <r>   -0.3333    0.0000 </r>
       <r>    3.9464    0.0000 </r>
       <r>    4.5749    0.0000 </r>
      </set>
      <set comment="kpoint 219">
       <r>  -17.6942    1.0000 </r>
       <r>  -16.9423    1.0000 </r>
       <r>  -15.5481    1.0000 </r>
       <r>  -14.8149    1.0000 </r>
       <r>   -9.6794    1.0000 </r>
       <r>   -9.2453    1.0000 </r>
       <r>   -5.5065    1.0000 </r>
       <r>   -4.9733    1.0000 </r>
       <r>   -1.1098    0.0000 </r>
       <r>   -0.5193    0.0000 </r>
       <r>    3.8302    0.0000 </r>
       <r>    4.2623    0.0000 </r>
      </set>
      <set comment="kpoint 220">
       <r>  -17.5172    1.0000 </r>
       <r>  -17.1351    1.0000 </r>
       <r>  -15.4060    1.0000 </r>
       <r>  -15.0330    1.0000 </r>
       <r>   -9.4895    1.0000 </r>
       <r>   -9.2686    1.0000 </r>
       <r>   -5.3736    1.0000 </r>
       <r>   -5.1036    1.0000 </r>
       <r>   -0.9924    0.0000 </r>
       <r>   -0.6938    0.0000 </r>
       <r>    3.8049    0.0000 </r>
       <r>    4.0251    0.0000 </r>
      </set>
      <set comment="kpoint 221">
       <r>  -17.3294    1.0000 </r>
       <r>  -17.3294    1.0000 </r>
       <r>  -15.2316    1.0000 </r>
       <r>  -15.2316    1.0000 </r>
       <r>   -9.3509    1.0000 </r>
       <r>   -9.3509    1.0000 </r>
       <r>   -5.2382    1.0000 </r>
       <r>   -5.2382    1.0000 </r>
       <r>   -0.8528    0.0000 </r>
       <r>   -0.8528    0.0000 </r>
       <r>    3.8708    0.0000 </r>
       <r>    3.8708    0.0000 </r>
      </set>
      <set comment="kpoint 222">
       <r>  -18.1511    1.0000 </r>
       <r>  -17.2366    1.0000 </r>
       <r>  -13.8587    1.0000 </r>
       <r>  -13.0211    1.0000 </r>
       <r>  -11.9259    1.0000 </r>
       <r>  -11.1663    1.0000 </r>
       <r>   -5.7893    1.0000 </r>
       <r>   -4.8464    1.0000 </r>
       <r>   -0.7395    0.0000 </r>
       <r>    0.3412    0.0000 </r>
       <r>    5.9341    0.0000 </r>
       <r>    6.6537    0.0000 </r>
      </set>
      <set comment="kpoint 223">
       <r>  -18.1421    1.0000 </r>
       <r>  -17.2285    1.0000 </r>
       <r>  -13.9230    1.0000 </r>
       <r>  -13.0831    1.0000 </r>
       <r>  -11.8568    1.0000 </r>
       <r>  -11.1043    1.0000 </r>
       <r>   -5.7824    1.0000 </r>
       <r>   -4.8449    1.0000 </r>
       <r>   -0.7523    0.0000 </r>
       <r>    0.3212    0.0000 </r>
       <r>    5.9468    0.0000 </r>
       <r>    6.6695    0.0000 </r>
      </set>
      <set comment="kpoint 224">
       <r>  -18.1153    1.0000 </r>
       <r>  -17.2041    1.0000 </r>
       <r>  -14.0924    1.0000 </r>
       <r>  -13.2475    1.0000 </r>
       <r>  -11.6731    1.0000 </r>
       <r>  -10.9403    1.0000 </r>
       <r>   -5.7619    1.0000 </r>
       <r>   -4.8405    1.0000 </r>
       <r>   -0.7894    0.0000 </r>
       <r>    0.2624    0.0000 </r>
       <r>    5.9846    0.0000 </r>
       <r>    6.7166    0.0000 </r>
      </set>
      <set comment="kpoint 225">
       <r>  -18.0706    1.0000 </r>
       <r>  -17.1639    1.0000 </r>
       <r>  -14.3234    1.0000 </r>
       <r>  -13.4740    1.0000 </r>
       <r>  -11.4193    1.0000 </r>
       <r>  -10.7162    1.0000 </r>
       <r>   -5.7281    1.0000 </r>
       <r>   -4.8343    1.0000 </r>
       <r>   -0.8464    0.0000 </r>
       <r>    0.1690    0.0000 </r>
       <r>    6.0449    0.0000 </r>
       <r>    6.5367    0.0000 </r>
      </set>
      <set comment="kpoint 226">
       <r>  -18.0085    1.0000 </r>
       <r>  -17.1089    1.0000 </r>
       <r>  -14.5829    1.0000 </r>
       <r>  -13.7317    1.0000 </r>
       <r>  -11.1302    1.0000 </r>
       <r>  -10.4659    1.0000 </r>
       <r>   -5.6818    1.0000 </r>
       <r>   -4.8280    1.0000 </r>
       <r>   -0.9172    0.0000 </r>
       <r>    0.0471    0.0000 </r>
       <r>    5.9595    0.0000 </r>
       <r>    6.1643    0.0000 </r>
      </set>
      <set comment="kpoint 227">
       <r>  -17.9290    1.0000 </r>
       <r>  -17.0406    1.0000 </r>
       <r>  -14.8503    1.0000 </r>
       <r>  -14.0021    1.0000 </r>
       <r>  -10.8280    1.0000 </r>
       <r>  -10.2118    1.0000 </r>
       <r>   -5.6239    1.0000 </r>
       <r>   -4.8239    1.0000 </r>
       <r>   -0.9940    0.0000 </r>
       <r>   -0.0960    0.0000 </r>
       <r>    5.4676    0.0000 </r>
       <r>    6.0616    0.0000 </r>
      </set>
      <set comment="kpoint 228">
       <r>  -17.8327    1.0000 </r>
       <r>  -16.9621    1.0000 </r>
       <r>  -15.1122    1.0000 </r>
       <r>  -14.2743    1.0000 </r>
       <r>  -10.5276    1.0000 </r>
       <r>   -9.9694    1.0000 </r>
       <r>   -5.5558    1.0000 </r>
       <r>   -4.8246    1.0000 </r>
       <r>   -1.0683    0.0000 </r>
       <r>   -0.2528    0.0000 </r>
       <r>    5.0116    0.0000 </r>
       <r>    5.5552    0.0000 </r>
      </set>
      <set comment="kpoint 229">
       <r>  -17.7203    1.0000 </r>
       <r>  -16.8790    1.0000 </r>
       <r>  -15.3568    1.0000 </r>
       <r>  -14.5416    1.0000 </r>
       <r>  -10.2407    1.0000 </r>
       <r>   -9.7510    1.0000 </r>
       <r>   -5.4792    1.0000 </r>
       <r>   -4.8331    1.0000 </r>
       <r>   -1.1319    0.0000 </r>
       <r>   -0.4155    0.0000 </r>
       <r>    4.6134    0.0000 </r>
       <r>    5.0941    0.0000 </r>
      </set>
      <set comment="kpoint 230">
       <r>  -17.5928    1.0000 </r>
       <r>  -16.8025    1.0000 </r>
       <r>  -15.5692    1.0000 </r>
       <r>  -14.7991    1.0000 </r>
       <r>   -9.9772    1.0000 </r>
       <r>   -9.5672    1.0000 </r>
       <r>   -5.3963    1.0000 </r>
       <r>   -4.8522    1.0000 </r>
       <r>   -1.1772    0.0000 </r>
       <r>   -0.5770    0.0000 </r>
       <r>    4.2829    0.0000 </r>
       <r>    4.6878    0.0000 </r>
      </set>
      <set comment="kpoint 231">
       <r>  -17.4517    1.0000 </r>
       <r>  -16.7548    1.0000 </r>
       <r>  -15.7251    1.0000 </r>
       <r>  -15.0428    1.0000 </r>
       <r>   -9.7465    1.0000 </r>
       <r>   -9.4271    1.0000 </r>
       <r>   -5.3095    1.0000 </r>
       <r>   -4.8838    1.0000 </r>
       <r>   -1.1983    0.0000 </r>
       <r>   -0.7306    0.0000 </r>
       <r>    4.0290    0.0000 </r>
       <r>    4.3457    0.0000 </r>
      </set>
      <set comment="kpoint 232">
       <r>  -17.2997    1.0000 </r>
       <r>  -16.7668    1.0000 </r>
       <r>  -15.7918    1.0000 </r>
       <r>  -15.2684    1.0000 </r>
       <r>   -9.5573    1.0000 </r>
       <r>   -9.3381    1.0000 </r>
       <r>   -5.2220    1.0000 </r>
       <r>   -4.9290    1.0000 </r>
       <r>   -1.1909    0.0000 </r>
       <r>   -0.8701    0.0000 </r>
       <r>    3.8588    0.0000 </r>
       <r>    4.0768    0.0000 </r>
      </set>
      <set comment="kpoint 233">
       <r>  -17.1415    1.0000 </r>
       <r>  -16.8515    1.0000 </r>
       <r>  -15.7555    1.0000 </r>
       <r>  -15.4703    1.0000 </r>
       <r>   -9.4173    1.0000 </r>
       <r>   -9.3057    1.0000 </r>
       <r>   -5.1369    1.0000 </r>
       <r>   -4.9875    1.0000 </r>
       <r>   -1.1533    0.0000 </r>
       <r>   -0.9899    0.0000 </r>
       <r>    3.7776    0.0000 </r>
       <r>    3.8888    0.0000 </r>
      </set>
      <set comment="kpoint 234">
       <r>  -16.9862    1.0000 </r>
       <r>  -16.9862    1.0000 </r>
       <r>  -15.6386    1.0000 </r>
       <r>  -15.6386    1.0000 </r>
       <r>   -9.3322    1.0000 </r>
       <r>   -9.3322    1.0000 </r>
       <r>   -5.0576    1.0000 </r>
       <r>   -5.0576    1.0000 </r>
       <r>   -1.0856    0.0000 </r>
       <r>   -1.0856    0.0000 </r>
       <r>    3.7878    0.0000 </r>
       <r>    3.7878    0.0000 </r>
      </set>
      <set comment="kpoint 235">
       <r>  -17.7020    1.0000 </r>
       <r>  -17.7020    1.0000 </r>
       <r>  -13.4501    1.0000 </r>
       <r>  -13.4501    1.0000 </r>
       <r>  -11.5553    1.0000 </r>
       <r>  -11.5553    1.0000 </r>
       <r>   -5.3204    1.0000 </r>
       <r>   -5.3204    1.0000 </r>
       <r>   -0.2095    0.0000 </r>
       <r>   -0.2095    0.0000 </r>
       <r>    6.5739    0.0000 </r>
       <r>    6.5739    0.0000 </r>
      </set>
      <set comment="kpoint 236">
       <r>  -17.6933    1.0000 </r>
       <r>  -17.6933    1.0000 </r>
       <r>  -13.5136    1.0000 </r>
       <r>  -13.5136    1.0000 </r>
       <r>  -11.4893    1.0000 </r>
       <r>  -11.4893    1.0000 </r>
       <r>   -5.3155    1.0000 </r>
       <r>   -5.3155    1.0000 </r>
       <r>   -0.2267    0.0000 </r>
       <r>   -0.2267    0.0000 </r>
       <r>    6.5865    0.0000 </r>
       <r>    6.5865    0.0000 </r>
      </set>
      <set comment="kpoint 237">
       <r>  -17.6673    1.0000 </r>
       <r>  -17.6673    1.0000 </r>
       <r>  -13.6813    1.0000 </r>
       <r>  -13.6813    1.0000 </r>
       <r>  -11.3147    1.0000 </r>
       <r>  -11.3147    1.0000 </r>
       <r>   -5.3011    1.0000 </r>
       <r>   -5.3011    1.0000 </r>
       <r>   -0.2768    0.0000 </r>
       <r>   -0.2768    0.0000 </r>
       <r>    6.6235    0.0000 </r>
       <r>    6.6235    0.0000 </r>
      </set>
      <set comment="kpoint 238">
       <r>  -17.6242    1.0000 </r>
       <r>  -17.6242    1.0000 </r>
       <r>  -13.9114    1.0000 </r>
       <r>  -13.9114    1.0000 </r>
       <r>  -11.0746    1.0000 </r>
       <r>  -11.0746    1.0000 </r>
       <r>   -5.2778    1.0000 </r>
       <r>   -5.2778    1.0000 </r>
       <r>   -0.3558    0.0000 </r>
       <r>   -0.3558    0.0000 </r>
       <r>    6.6726    0.0000 </r>
       <r>    6.6733    0.0000 </r>
      </set>
      <set comment="kpoint 239">
       <r>  -17.5643    1.0000 </r>
       <r>  -17.5643    1.0000 </r>
       <r>  -14.1717    1.0000 </r>
       <r>  -14.1717    1.0000 </r>
       <r>  -10.8035    1.0000 </r>
       <r>  -10.8035    1.0000 </r>
       <r>   -5.2468    1.0000 </r>
       <r>   -5.2468    1.0000 </r>
       <r>   -0.4574    0.0000 </r>
       <r>   -0.4574    0.0000 </r>
       <r>    6.2749    0.0000 </r>
       <r>    6.2749    0.0000 </r>
      </set>
      <set comment="kpoint 240">
       <r>  -17.4883    1.0000 </r>
       <r>  -17.4883    1.0000 </r>
       <r>  -14.4431    1.0000 </r>
       <r>  -14.4431    1.0000 </r>
       <r>  -10.5238    1.0000 </r>
       <r>  -10.5238    1.0000 </r>
       <r>   -5.2096    1.0000 </r>
       <r>   -5.2096    1.0000 </r>
       <r>   -0.5742    0.0000 </r>
       <r>   -0.5742    0.0000 </r>
       <r>    5.7502    0.0000 </r>
       <r>    5.7502    0.0000 </r>
      </set>
      <set comment="kpoint 241">
       <r>  -17.3972    1.0000 </r>
       <r>  -17.3972    1.0000 </r>
       <r>  -14.7142    1.0000 </r>
       <r>  -14.7142    1.0000 </r>
       <r>  -10.2506    1.0000 </r>
       <r>  -10.2506    1.0000 </r>
       <r>   -5.1682    1.0000 </r>
       <r>   -5.1682    1.0000 </r>
       <r>   -0.6980    0.0000 </r>
       <r>   -0.6980    0.0000 </r>
       <r>    5.2660    0.0000 </r>
       <r>    5.2660    0.0000 </r>
      </set>
      <set comment="kpoint 242">
       <r>  -17.2925    1.0000 </r>
       <r>  -17.2925    1.0000 </r>
       <r>  -14.9773    1.0000 </r>
       <r>  -14.9773    1.0000 </r>
       <r>   -9.9961    1.0000 </r>
       <r>   -9.9961    1.0000 </r>
       <r>   -5.1253    1.0000 </r>
       <r>   -5.1253    1.0000 </r>
       <r>   -0.8207    0.0000 </r>
       <r>   -0.8207    0.0000 </r>
       <r>    4.8337    0.0000 </r>
       <r>    4.8337    0.0000 </r>
      </set>
      <set comment="kpoint 243">
       <r>  -17.1770    1.0000 </r>
       <r>  -17.1770    1.0000 </r>
       <r>  -15.2259    1.0000 </r>
       <r>  -15.2259    1.0000 </r>
       <r>   -9.7705    1.0000 </r>
       <r>   -9.7705    1.0000 </r>
       <r>   -5.0837    1.0000 </r>
       <r>   -5.0837    1.0000 </r>
       <r>   -0.9343    0.0000 </r>
       <r>   -0.9343    0.0000 </r>
       <r>    4.4630    0.0000 </r>
       <r>    4.4630    0.0000 </r>
      </set>
      <set comment="kpoint 244">
       <r>  -17.0560    1.0000 </r>
       <r>  -17.0560    1.0000 </r>
       <r>  -15.4523    1.0000 </r>
       <r>  -15.4523    1.0000 </r>
       <r>   -9.5833    1.0000 </r>
       <r>   -9.5833    1.0000 </r>
       <r>   -5.0467    1.0000 </r>
       <r>   -5.0467    1.0000 </r>
       <r>   -1.0315    0.0000 </r>
       <r>   -1.0315    0.0000 </r>
       <r>    4.1628    0.0000 </r>
       <r>    4.1628    0.0000 </r>
      </set>
      <set comment="kpoint 245">
       <r>  -16.9396    1.0000 </r>
       <r>  -16.9396    1.0000 </r>
       <r>  -15.6451    1.0000 </r>
       <r>  -15.6451    1.0000 </r>
       <r>   -9.4427    1.0000 </r>
       <r>   -9.4427    1.0000 </r>
       <r>   -5.0174    1.0000 </r>
       <r>   -5.0174    1.0000 </r>
       <r>   -1.1060    0.0000 </r>
       <r>   -1.1060    0.0000 </r>
       <r>    3.9415    0.0000 </r>
       <r>    3.9415    0.0000 </r>
      </set>
      <set comment="kpoint 246">
       <r>  -16.8476    1.0000 </r>
       <r>  -16.8476    1.0000 </r>
       <r>  -15.7832    1.0000 </r>
       <r>  -15.7832    1.0000 </r>
       <r>   -9.3555    1.0000 </r>
       <r>   -9.3555    1.0000 </r>
       <r>   -4.9985    1.0000 </r>
       <r>   -4.9985    1.0000 </r>
       <r>   -1.1529    0.0000 </r>
       <r>   -1.1529    0.0000 </r>
       <r>    3.8058    0.0000 </r>
       <r>    3.8058    0.0000 </r>
      </set>
      <set comment="kpoint 247">
       <r>  -16.8107    1.0000 </r>
       <r>  -16.8107    1.0000 </r>
       <r>  -15.8355    1.0000 </r>
       <r>  -15.8355    1.0000 </r>
       <r>   -9.3259    1.0000 </r>
       <r>   -9.3259    1.0000 </r>
       <r>   -4.9920    1.0000 </r>
       <r>   -4.9920    1.0000 </r>
       <r>   -1.1688    0.0000 </r>
       <r>   -1.1688    0.0000 </r>
       <r>    3.7600    0.0000 </r>
       <r>    3.7600    0.0000 </r>
      </set>
     </set>
    </set>
   </array>
  </eigenvalues>
  <separator name="orbital magnetization" >
   <v name="MAGDIPOLOUT">      0.00000000      0.00000000      0.00000000</v>
  </separator>
 </calculation>
 <structure name="finalpos" >
  <crystal>
   <varray name="basis" >
    <v>       4.40125169       0.00000000       0.00000000 </v>
    <v>       0.00000000       2.45546062       0.00000000 </v>
    <v>       0.00000000       0.00000000      19.50920204 </v>
   </varray>
   <i name="volume">    210.83790140 </i>
   <varray name="rec_basis" >
    <v>       0.22720809       0.00000000       0.00000000 </v>
    <v>       0.00000000       0.40725556       0.00000000 </v>
    <v>       0.00000000       0.00000000       0.05125786 </v>
   </varray>
  </crystal>
  <varray name="positions" >
   <v>       0.99939171      -0.00000000      -0.00000000 </v>
   <v>       0.16727496       0.50000000       0.00000000 </v>
   <v>       0.49939171       0.50000000      -0.00000000 </v>
   <v>       0.66727496      -0.00000000       0.00000000 </v>
  </varray>
 </structure>
</modeling>
