gr                                      
           1
     4.401252    0.000000    0.000000
     0.000000    2.455461    0.000000
     0.000000    0.000000   19.509202
   C 
   4
Direct configuration=     1
   0.99938979  0.00000000  0.00000000
   0.16727688  0.50000000  0.00000000
   0.49938979  0.50000000  0.00000000
   0.66727688  0.00000000  0.00000000
Direct configuration=     2
   0.99939862  0.00000000  0.00000000
   0.16726805  0.50000000  0.00000000
   0.49939862  0.50000000  0.00000000
   0.66726805  0.00000000  0.00000000
Direct configuration=     3
   0.99939171  0.00000000 -0.00000000
   0.16727495  0.50000000  0.00000000
   0.49939171  0.50000000 -0.00000000
   0.66727495  0.00000000  0.00000000
Direct configuration=     4
   0.99939170  0.00000000 -0.00000000
   0.16727497  0.50000000  0.00000000
   0.49939170  0.50000000 -0.00000000
   0.66727497  0.00000000  0.00000000
Direct configuration=     5
   0.99939171 -0.00000000 -0.00000000
   0.16727496  0.50000000  0.00000000
   0.49939171  0.50000000 -0.00000000
   0.66727496 -0.00000000  0.00000000
