    4    4  400    1
  0.5270948E+02  0.4315778E-09  0.2462877E-09  0.1983567E-08  0.5000000E-15
  1.000000000000000E-004
  CAR 
 gr                                      
     16    247     12
 
  0.0000000E+00  0.0000000E+00  0.0000000E+00  0.1157407E-02
    1      -22.184952
    2      -17.118730
    3      -15.919481
    4      -10.305884
    5       -9.014047
    6       -5.876860
    7       -5.761366
    8       -5.202480
    9       -1.121425
   10        0.532069
   11        1.332086
   12        1.718940
 
  0.4166667E-01  0.0000000E+00  0.0000000E+00  0.2314815E-02
    1      -22.174902
    2      -17.262343
    3      -15.760715
    4      -10.293909
    5       -9.004161
    6       -5.920248
    7       -5.782914
    8       -5.265775
    9       -1.042233
   10        0.545686
   11        1.345890
   12        1.732912
 
  0.8333333E-01  0.0000000E+00  0.0000000E+00  0.2314815E-02
    1      -22.144755
    2      -17.572839
    3      -15.404841
    4      -10.258003
    5       -8.974550
    6       -6.048510
    7       -5.846396
    8       -5.442013
    9       -0.818466
   10        0.586541
   11        1.387295
   12        1.774830
 
  0.1250000E+00  0.0000000E+00  0.0000000E+00  0.2314815E-02
    1      -22.094532
    2      -17.931019
    3      -14.971306
    4      -10.198223
    5       -8.925370
    6       -6.256288
    7       -5.948512
    8       -5.700432
    9       -0.481387
   10        0.654646
   11        1.456289
   12        1.844697
 
  0.1666667E+00  0.0000000E+00  0.0000000E+00  0.2314815E-02
    1      -22.024267
    2      -18.296714
    3      -14.500697
    4      -10.114668
    5       -8.856880
    6       -6.535654
    7       -6.084330
    8       -6.009893
    9       -0.062975
   10        0.750011
   11        1.552849
   12        1.942514
 
  0.2083333E+00  0.0000000E+00  0.0000000E+00  0.2314815E-02
    1      -21.934011
    2      -18.656375
    3      -14.007173
    4      -10.007478
    5       -8.769459
    6       -6.877227
    7       -6.346729
    8       -6.247941
    9        0.411889
   10        0.872642
   11        1.676937
   12        2.068283
 
  0.2500000E+00  0.0000000E+00  0.0000000E+00  0.2314815E-02
    1      -21.823824
    2      -19.004390
    3      -13.497143
    4       -9.876843
    5       -8.663609
    6       -7.271193
    7       -6.694896
    8       -6.433081
    9        0.925532
   10        1.022531
   11        1.828496
   12        2.222003
 
  0.2916667E+00  0.0000000E+00  0.0000000E+00  0.2314815E-02
    1      -21.693790
    2      -19.337990
    3      -12.974407
    4       -9.723010
    5       -8.539980
    6       -7.708065
    7       -7.043852
    8       -6.633623
    9        1.199659
   10        1.465281
   11        2.007439
   12        2.403674
 
  0.3333333E+00  0.0000000E+00  0.0000000E+00  0.2314815E-02
    1      -21.544008
    2      -19.655597
    3      -12.441816
    4       -9.546289
    5       -8.399383
    6       -8.179137
    7       -7.386622
    8       -6.843894
    9        1.403991
   10        2.021276
   11        2.213622
   12        2.613290
 
  0.3750000E+00  0.0000000E+00  0.0000000E+00  0.2314815E-02
    1      -21.374594
    2      -19.956215
    3      -11.901938
    4       -9.347074
    5       -8.676681
    6       -8.242824
    7       -7.718481
    8       -7.058840
    9        1.635478
   10        2.446784
   11        2.584223
   12        2.850843
 
  0.4166667E+00  0.0000000E+00  0.0000000E+00  0.2314815E-02
    1      -21.185689
    2      -20.239157
    3      -11.357360
    4       -9.193985
    5       -9.125857
    6       -8.071531
    7       -8.036141
    8       -7.274077
    9        1.894049
   10        2.706370
   11        3.116327
   12        3.138500
 
  0.4583333E+00  0.0000000E+00  0.0000000E+00  0.2314815E-02
    1      -20.977464
    2      -20.503921
    3      -10.810882
    4       -9.725282
    5       -8.883254
    6       -8.337242
    7       -7.887001
    8       -7.485863
    9        2.179615
   10        2.831159
   11        2.990872
   12        3.409739
 
  0.5000000E+00  0.0000000E+00  0.0000000E+00  0.1157407E-02
    1      -20.750126
    2      -20.750126
    3      -10.265651
    4      -10.265651
    5       -8.620048
    6       -8.620048
    7       -7.691049
    8       -7.691049
    9        2.492047
   10        2.492047
   11        3.293760
   12        3.293760
 
  0.0000000E+00  0.2777778E-01  0.0000000E+00  0.2314815E-02
    1      -22.171218
    2      -17.106890
    3      -15.907808
    4      -10.289520
    5       -9.076347
    6       -5.905370
    7       -5.819108
    8       -5.185823
    9       -1.124738
   10        0.550691
   11        1.350929
   12        1.738014
 
  0.4166667E-01  0.2777778E-01  0.0000000E+00  0.4629630E-02
    1      -22.161168
    2      -17.250356
    3      -15.749238
    4      -10.277549
    5       -9.066446
    6       -5.952219
    7       -5.836549
    8       -5.249250
    9       -1.045525
   10        0.564309
   11        1.364731
   12        1.751986
 
  0.8333333E-01  0.2777778E-01  0.0000000E+00  0.4629630E-02
    1      -22.131026
    2      -17.560607
    3      -15.393756
    4      -10.241655
    5       -9.036791
    6       -6.084035
    7       -5.894656
    8       -5.425794
    9       -0.821787
   10        0.605165
   11        1.406134
   12        1.793905
 
  0.1250000E+00  0.2777778E-01  0.0000000E+00  0.4629630E-02
    1      -22.080811
    2      -17.918564
    3      -14.960693
    4      -10.181896
    5       -8.987534
    6       -6.291594
    7       -5.994299
    8       -5.684534
    9       -0.484947
   10        0.673272
   11        1.475124
   12        1.863772
 
  0.1666667E+00  0.2777778E-01  0.0000000E+00  0.4629630E-02
    1      -22.010557
    2      -18.284069
    3      -14.490635
    4      -10.098369
    5       -8.918929
    6       -6.567929
    7       -6.129962
    8       -5.994238
    9       -0.067078
   10        0.768641
   11        1.571679
   12        1.961590
 
  0.2083333E+00  0.2777778E-01  0.0000000E+00  0.4629630E-02
    1      -21.920315
    2      -18.643566
    3      -13.997758
    4       -9.991215
    5       -8.831346
    6       -6.905009
    7       -6.331219
    8       -6.294729
    9        0.406918
   10        0.891277
   11        1.695761
   12        2.087360
 
  0.2500000E+00  0.2777778E-01  0.0000000E+00  0.4629630E-02
    1      -21.810147
    2      -18.991442
    3      -13.488491
    4       -9.860625
    5       -8.725280
    6       -7.293972
    7       -6.679448
    8       -6.481644
    9        0.919391
   10        1.041175
   11        1.847313
   12        2.241083
 
  0.2916667E+00  0.2777778E-01  0.0000000E+00  0.4629630E-02
    1      -21.680136
    2      -19.324921
    3      -12.966656
    4       -9.706844
    5       -8.601365
    6       -7.725905
    7       -7.028406
    8       -6.684163
    9        1.218312
   10        1.457708
   11        2.026250
   12        2.422756
 
  0.3333333E+00  0.2777778E-01  0.0000000E+00  0.4629630E-02
    1      -21.530379
    2      -19.642423
    3      -12.435137
    4       -9.530184
    5       -8.460399
    6       -8.192405
    7       -7.371136
    8       -6.896376
    9        1.422655
   10        2.012083
   11        2.232429
   12        2.632376
 
  0.3750000E+00  0.2777778E-01  0.0000000E+00  0.4629630E-02
    1      -21.360997
    2      -19.942952
    3      -11.896534
    4       -9.331037
    5       -8.685879
    6       -8.303368
    7       -7.702932
    8       -7.113104
    9        1.654154
   10        2.465593
   11        2.573427
   12        2.869934
 
  0.4166667E+00  0.2777778E-01  0.0000000E+00  0.4629630E-02
    1      -21.172129
    2      -20.225816
    3      -11.353475
    4       -9.199648
    5       -9.109894
    6       -8.131480
    7       -8.020514
    8       -7.329908
    9        1.912740
   10        2.725194
   11        3.127206
   12        3.135418
 
  0.4583333E+00  0.2777778E-01  0.0000000E+00  0.4629630E-02
    1      -20.963947
    2      -20.490512
    3      -10.808807
    4       -9.727924
    5       -8.867371
    6       -8.321530
    7       -7.946206
    8       -7.543032
    9        2.198323
   10        2.849932
   11        3.009723
   12        3.430148
 
  0.5000000E+00  0.2777778E-01  0.0000000E+00  0.2314815E-02
    1      -20.736659
    2      -20.736659
    3      -10.265732
    4      -10.265732
    5       -8.604250
    6       -8.604250
    7       -7.749335
    8       -7.749335
    9        2.510779
   10        2.510779
   11        3.312491
   12        3.312491
 
  0.0000000E+00  0.5555556E-01  0.0000000E+00  0.2314815E-02
    1      -22.130025
    2      -17.071374
    3      -15.872937
    4      -10.240463
    5       -9.258234
    6       -5.990313
    7       -5.987675
    8       -5.135872
    9       -1.135498
   10        0.606560
   11        1.407449
   12        1.795237
 
  0.4166667E-01  0.5555556E-01  0.0000000E+00  0.4629630E-02
    1      -22.119980
    2      -17.214407
    3      -15.714948
    4      -10.228504
    5       -9.248285
    6       -6.064572
    7       -5.975813
    8       -5.199706
    9       -1.056218
   10        0.620177
   11        1.421248
   12        1.809209
 
  0.8333333E-01  0.5555556E-01  0.0000000E+00  0.4629630E-02
    1      -22.089851
    2      -17.523930
    3      -15.360645
    4      -10.192647
    5       -9.218483
    6       -6.204597
    7       -6.020357
    8       -5.377195
    9       -0.832559
   10        0.661035
   11        1.462644
   12        1.851129
 
  0.1250000E+00  0.5555556E-01  0.0000000E+00  0.4629630E-02
    1      -22.039659
    2      -17.881221
    3      -14.929016
    4      -10.132950
    5       -9.168970
    6       -6.408697
    7       -6.115500
    8       -5.636918
    9       -0.496443
   10        0.729146
   11        1.531622
   12        1.920997
 
  0.1666667E+00  0.5555556E-01  0.0000000E+00  0.4629630E-02
    1      -21.969438
    2      -18.246153
    3      -14.460643
    4      -10.049509
    5       -9.099983
    6       -6.674173
    7       -6.252556
    8       -5.947362
    9       -0.080235
   10        0.824523
   11        1.628160
   12        2.018817
 
  0.2083333E+00  0.5555556E-01  0.0000000E+00  0.4629630E-02
    1      -21.879239
    2      -18.605159
    3      -13.969748
    4       -9.942467
    5       -9.011867
    6       -6.996319
    7       -6.422312
    8       -6.284781
    9        0.391110
   10        0.947173
   11        1.752221
   12        2.144591
 
  0.2500000E+00  0.5555556E-01  0.0000000E+00  0.4629630E-02
    1      -21.769126
    2      -18.952614
    3      -13.462826
    4       -9.812012
    5       -8.905085
    6       -7.368876
    7       -6.633196
    8       -6.615980
    9        0.900003
   10        1.097088
   11        1.903752
   12        2.298319
 
  0.2916667E+00  0.5555556E-01  0.0000000E+00  0.4629630E-02
    1      -21.639182
    2      -19.285730
    3      -12.943776
    4       -9.658391
    5       -8.780229
    6       -7.784680
    7       -6.982155
    8       -6.825732
    9        1.274249
   10        1.433935
   11        2.082669
   12        2.479999
 
  0.3333333E+00  0.5555556E-01  0.0000000E+00  0.4629630E-02
    1      -21.489506
    2      -19.602919
    3      -12.415576
    4       -9.481915
    5       -8.638043
    6       -8.236321
    7       -7.324765
    8       -7.044889
    9        1.478618
   10        1.983328
   11        2.288835
   12        2.689628
 
  0.3750000E+00  0.5555556E-01  0.0000000E+00  0.4629630E-02
    1      -21.320218
    2      -19.903176
    3      -11.880937
    4       -9.282975
    5       -8.716641
    6       -8.479450
    7       -7.656364
    8       -7.267876
    9        1.710147
   10        2.522005
   11        2.539627
   12        2.927198
 
  0.4166667E+00  0.5555556E-01  0.0000000E+00  0.4629630E-02
    1      -21.131461
    2      -20.185806
    3      -11.342622
    4       -9.219054
    5       -9.062059
    6       -8.305584
    7       -7.973706
    8       -7.490099
    9        1.968767
   10        2.781649
   11        3.090938
   12        3.192698
 
  0.4583333E+00  0.5555556E-01  0.0000000E+00  0.4629630E-02
    1      -20.923409
    2      -20.450301
    3      -10.803637
    4       -9.737679
    5       -8.819781
    6       -8.274462
    7       -8.117829
    8       -7.707793
    9        2.254391
   10        2.906143
   11        3.066268
   12        3.486335
 
  0.5000000E+00  0.5555556E-01  0.0000000E+00  0.2314815E-02
    1      -20.696272
    2      -20.696272
    3      -10.267364
    4      -10.267364
    5       -8.556917
    6       -8.556917
    7       -7.917877
    8       -7.917877
    9        2.566903
   10        2.566903
   11        3.368619
   12        3.368619
 
  0.0000000E+00  0.8333333E-01  0.0000000E+00  0.2314815E-02
    1      -22.061409
    2      -17.012193
    3      -15.815335
    4      -10.158816
    5       -9.546076
    6       -6.254517
    7       -6.129954
    8       -5.052688
    9       -1.156171
   10        0.699681
   11        1.501624
   12        1.890611
 
  0.4166667E-01  0.8333333E-01  0.0000000E+00  0.4629630E-02
    1      -22.051371
    2      -17.154533
    3      -15.658300
    4      -10.146878
    5       -9.536030
    6       -6.306412
    7       -6.137428
    8       -5.117244
    9       -1.076756
   10        0.713297
   11        1.515419
   12        1.904583
 
  0.8333333E-01  0.8333333E-01  0.0000000E+00  0.4629630E-02
    1      -22.021265
    2      -17.462866
    3      -15.305979
    4      -10.111085
    5       -9.505934
    6       -6.438951
    7       -6.180865
    8       -5.296391
    9       -0.853202
   10        0.754152
   11        1.556801
   12        1.946502
 
  0.1250000E+00  0.8333333E-01  0.0000000E+00  0.4629630E-02
    1      -21.971112
    2      -17.819054
    3      -14.876803
    4      -10.051493
    5       -9.455907
    6       -6.632113
    7       -6.274095
    8       -5.557829
    9       -0.518317
   10        0.822262
   11        1.625756
   12        2.016371
 
  0.1666667E+00  0.8333333E-01  0.0000000E+00  0.4629630E-02
    1      -21.900947
    2      -18.183030
    3      -14.411344
    4       -9.968201
    5       -9.386157
    6       -6.878654
    7       -6.414667
    8       -5.869546
    9       -0.104969
   10        0.917641
   11        1.722263
   12        2.114193
 
  0.2083333E+00  0.8333333E-01  0.0000000E+00  0.4629630E-02
    1      -21.810820
    2      -18.541214
    3      -13.923909
    4       -9.861349
    5       -9.296978
    6       -7.174788
    7       -6.594086
    8       -6.207711
    9        0.361800
   10        1.040300
   11        1.846287
   12        2.239970
 
  0.2500000E+00  0.8333333E-01  0.0000000E+00  0.4629630E-02
    1      -21.700799
    2      -18.887962
    3      -13.421111
    4       -9.731127
    5       -9.188765
    6       -7.517366
    7       -6.801730
    8       -6.556431
    9        0.864514
   10        1.190231
   11        1.997776
   12        2.393704
 
  0.2916667E+00  0.8333333E-01  0.0000000E+00  0.4629630E-02
    1      -21.570967
    2      -19.220468
    3      -12.906997
    4       -9.577781
    5       -9.062026
    6       -7.902591
    7       -7.027226
    8       -6.905379
    9        1.367414
   10        1.390859
   11        2.176653
   12        2.575394
 
  0.3333333E+00  0.8333333E-01  0.0000000E+00  0.4629630E-02
    1      -21.421424
    2      -19.537132
    3      -12.384725
    4       -9.401621
    5       -8.917394
    6       -8.325529
    7       -7.261817
    8       -7.247769
    9        1.571812
   10        1.931570
   11        2.382791
   12        2.785034
 
  0.3750000E+00  0.8333333E-01  0.0000000E+00  0.4629630E-02
    1      -21.252294
    2      -19.836935
    3      -11.857232
    4       -9.203036
    5       -8.780343
    6       -8.755653
    7       -7.579019
    8       -7.498717
    9        1.803371
   10        2.478776
   11        2.615965
   12        3.022619
 
  0.4166667E+00  0.8333333E-01  0.0000000E+00  0.4629630E-02
    1      -21.063723
    2      -20.119173
    3      -11.327554
    4       -9.260857
    5       -8.982512
    6       -8.577764
    7       -7.895940
    8       -7.732852
    9        2.062024
   10        2.875684
   11        3.023486
   12        3.288139
 
  0.4583333E+00  0.8333333E-01  0.0000000E+00  0.4629630E-02
    1      -20.855889
    2      -20.383327
    3      -10.799027
    4       -9.761061
    5       -8.740657
    6       -8.384905
    7       -8.196244
    8       -7.960420
    9        2.347685
   10        2.999557
   11        3.160481
   12        3.527673
 
  0.5000000E+00  0.8333333E-01  0.0000000E+00  0.2314815E-02
    1      -20.629004
    2      -20.629004
    3      -10.275425
    4      -10.275425
    5       -8.478241
    6       -8.478241
    7       -8.178525
    8       -8.178525
    9        2.660244
   10        2.660244
   11        3.461826
   12        3.461826
 
  0.0000000E+00  0.1111111E+00  0.0000000E+00  0.2314815E-02
    1      -21.965430
    2      -16.929369
    3      -15.735883
    4      -10.044755
    5       -9.920907
    6       -6.602521
    7       -6.321451
    8       -4.936380
    9       -1.190847
   10        0.830059
   11        1.633416
   12        2.024138
 
  0.4166667E-01  0.1111111E+00  0.0000000E+00  0.4629630E-02
    1      -21.955403
    2      -17.070798
    3      -15.580156
    4      -10.032848
    5       -9.910690
    6       -6.649705
    7       -6.329664
    8       -5.002041
    9       -1.111186
   10        0.843672
   11        1.647204
   12        2.038110
 
  0.8333333E-01  0.1111111E+00  0.0000000E+00  0.4629630E-02
    1      -21.925329
    2      -17.377519
    3      -15.230652
    4       -9.997147
    5       -9.880070
    6       -6.776421
    7       -6.367588
    8       -5.183705
    9       -0.887698
   10        0.884516
   11        1.688563
   12        2.080027
 
  0.1250000E+00  0.1111111E+00  0.0000000E+00  0.4629630E-02
    1      -21.875231
    2      -17.732176
    3      -14.805071
    4       -9.937710
    5       -9.829132
    6       -6.961360
    7       -6.451909
    8       -5.447709
    9       -0.554561
   10        0.952610
   11        1.757481
   12        2.149894
 
  0.1666667E+00  0.1111111E+00  0.0000000E+00  0.4629630E-02
    1      -21.805143
    2      -18.094811
    3      -14.343960
    4       -9.854634
    5       -9.758020
    6       -7.192045
    7       -6.587521
    8       -5.761300
    9       -0.145389
   10        1.047975
   11        1.853936
   12        2.247715
 
  0.2083333E+00  0.1111111E+00  0.0000000E+00  0.4629630E-02
    1      -21.715119
    2      -18.451834
    3      -13.861762
    4       -9.748061
    5       -9.666940
    6       -7.462133
    7       -6.770623
    8       -6.100535
    9        0.314672
   10        1.170623
   11        1.977897
   12        2.373493
 
  0.2500000E+00  0.1111111E+00  0.0000000E+00  0.4629630E-02
    1      -21.605227
    2      -18.797582
    3      -13.365287
    4       -9.618181
    5       -9.556159
    6       -7.768868
    7       -6.991956
    8       -6.449670
    9        0.808327
   10        1.320553
   11        2.129313
   12        2.527231
 
  0.2916667E+00  0.1111111E+00  0.0000000E+00  0.4629630E-02
    1      -21.475551
    2      -19.129226
    3      -12.858843
    4       -9.465238
    5       -9.426011
    6       -8.111527
    7       -7.239272
    8       -6.798570
    9        1.323545
   10        1.497742
   11        2.308116
   12        2.708927
 
  0.3333333E+00  0.1111111E+00  0.0000000E+00  0.4629630E-02
    1      -21.326197
    2      -19.445146
    3      -12.345919
    4       -9.289542
    5       -9.276903
    6       -8.489755
    7       -7.499880
    8       -7.140608
    9        1.702151
   10        1.851435
   11        2.514195
   12        2.918578
 
  0.3750000E+00  0.1111111E+00  0.0000000E+00  0.4629630E-02
    1      -21.157289
    2      -19.744305
    3      -11.829875
    4       -9.109320
    5       -9.091479
    6       -8.901988
    7       -7.762950
    8       -7.471323
    9        1.933723
   10        2.384805
   11        2.747358
   12        3.156177
 
  0.4166667E+00  0.1111111E+00  0.0000000E+00  0.4629630E-02
    1      -20.968980
    2      -20.025988
    3      -11.314281
    4       -9.344740
    5       -8.923840
    6       -8.871532
    7       -8.020667
    8       -7.787609
    9        2.192387
   10        2.916821
   11        3.007186
   12        3.421715
 
  0.4583333E+00  0.1111111E+00  0.0000000E+00  0.4629630E-02
    1      -20.761453
    2      -20.289664
    3      -10.803132
    4       -9.812972
    5       -8.721162
    6       -8.630303
    7       -8.268065
    8       -8.087234
    9        2.478055
   10        3.129940
   11        3.292308
   12        3.434817
 
  0.5000000E+00  0.1111111E+00  0.0000000E+00  0.2314815E-02
    1      -20.534926
    2      -20.534926
    3      -10.300979
    4      -10.300979
    5       -8.502168
    6       -8.502168
    7       -8.368548
    8       -8.368548
    9        2.790619
   10        2.790619
   11        3.590560
   12        3.590560
 
  0.0000000E+00  0.1388889E+00  0.0000000E+00  0.2314815E-02
    1      -21.842176
    2      -16.822930
    3      -15.636071
    4      -10.361841
    5       -9.898533
    6       -7.013510
    7       -6.560971
    8       -4.787096
    9       -1.245146
   10        0.997694
   11        1.802768
   12        2.195820
 
  0.4166667E-01  0.1388889E+00  0.0000000E+00  0.4629630E-02
    1      -21.832163
    2      -16.963300
    3      -15.481981
    4      -10.351332
    5       -9.886669
    6       -7.060243
    7       -6.564948
    8       -4.854370
    9       -1.165040
   10        1.011298
   11        1.816543
   12        2.209791
 
  0.8333333E-01  0.1388889E+00  0.0000000E+00  0.4629630E-02
    1      -21.802131
    2      -17.268050
    3      -15.136211
    4      -10.319815
    5       -9.851094
    6       -7.186655
    7       -6.589715
    8       -5.039656
    9       -0.941433
   10        1.052118
   11        1.857866
   12        2.251705
 
  0.1250000E+00  0.1388889E+00  0.0000000E+00  0.4629630E-02
    1      -21.752103
    2      -17.620764
    3      -14.715607
    4      -10.267308
    5       -9.791867
    6       -7.369722
    7       -6.655319
    8       -5.307269
    9       -0.610524
   10        1.120177
   11        1.926724
   12        2.321566
 
  0.1666667E+00  0.1388889E+00  0.0000000E+00  0.4629630E-02
    1      -21.682117
    2      -17.981666
    3      -14.260683
    4      -10.193839
    5       -9.709087
    6       -7.593364
    7       -6.772567
    8       -5.623429
    9       -0.206953
   10        1.215499
   11        2.023096
   12        2.419381
 
  0.2083333E+00  0.1388889E+00  0.0000000E+00  0.4629630E-02
    1      -21.592225
    2      -18.337179
    3      -13.786098
    4      -10.099434
    5       -9.602894
    6       -7.848127
    7       -6.943236
    8       -5.964082
    9        0.244045
   10        1.338106
   11        2.146949
   12        2.545154
 
  0.2500000E+00  0.1388889E+00  0.0000000E+00  0.4629630E-02
    1      -21.482498
    2      -18.681621
    3      -13.299008
    4       -9.984103
    5       -9.473480
    6       -8.128898
    7       -7.162598
    8       -6.313718
    9        0.725472
   10        1.488000
   11        2.298239
   12        2.698891
 
  0.2916667E+00  0.1388889E+00  0.0000000E+00  0.4629630E-02
    1      -21.353026
    2      -19.012138
    3      -12.804197
    4       -9.847821
    5       -9.321088
    6       -8.433813
    7       -7.421134
    8       -6.662486
    9        1.225696
   10        1.665163
   11        2.476904
   12        2.880589
 
  0.3333333E+00  0.1388889E+00  0.0000000E+00  0.4629630E-02
    1      -21.203915
    2      -19.327085
    3      -12.305790
    4       -9.690498
    5       -9.146028
    6       -8.763629
    7       -7.706007
    8       -7.003985
    9        1.736281
   10        1.869552
   11        2.682853
   12        3.090246
 
  0.3750000E+00  0.1388889E+00  0.0000000E+00  0.4629630E-02
    1      -21.035296
    2      -19.625405
    3      -11.807980
    4       -9.511956
    5       -9.120725
    6       -8.948683
    7       -8.002854
    8       -7.333921
    9        2.101105
   10        2.250640
   11        2.915942
   12        3.327854
 
  0.4166667E+00  0.1388889E+00  0.0000000E+00  0.4629630E-02
    1      -20.847327
    2      -19.906363
    3      -11.315397
    4       -9.507386
    5       -9.311915
    6       -8.729531
    7       -8.298125
    8       -7.649301
    9        2.359744
   10        2.763197
   11        3.175883
   12        3.593406
 
  0.4583333E+00  0.1388889E+00  0.0000000E+00  0.4629630E-02
    1      -20.640199
    2      -20.169414
    3      -10.833293
    4       -9.923861
    5       -9.090060
    6       -8.581372
    7       -8.489166
    8       -7.947971
    9        2.645373
   10        3.268355
   11        3.297121
   12        3.461610
 
  0.5000000E+00  0.1388889E+00  0.0000000E+00  0.2314815E-02
    1      -20.414137
    2      -20.414137
    3      -10.367481
    4      -10.367481
    5       -8.846291
    6       -8.846291
    7       -8.228331
    8       -8.228331
    9        2.957879
   10        2.957879
   11        3.719074
   12        3.719076
 
  0.0000000E+00  0.1666667E+00  0.0000000E+00  0.2314815E-02
    1      -21.691764
    2      -16.692916
    3      -15.518396
    4      -10.848250
    5       -9.720491
    6       -7.470631
    7       -6.843845
    8       -4.605036
    9       -1.325965
   10        1.202571
   11        2.009596
   12        2.405659
 
  0.4166667E-01  0.1666667E+00  0.0000000E+00  0.4629630E-02
    1      -21.681768
    2      -16.832189
    3      -15.366254
    4      -10.837240
    5       -9.708682
    6       -7.518319
    7       -6.841717
    8       -4.674640
    9       -1.245036
   10        1.216162
   11        2.023353
   12        2.419628
 
  0.8333333E-01  0.1666667E+00  0.0000000E+00  0.4629630E-02
    1      -21.651788
    2      -17.134705
    3      -15.025322
    4      -10.804174
    5       -9.673273
    6       -7.647238
    7       -6.849078
    8       -4.865052
    9       -1.020814
   10        1.256945
   11        2.064617
   12        2.461535
 
  0.1250000E+00  0.1666667E+00  0.0000000E+00  0.4629630E-02
    1      -21.601847
    2      -17.485082
    3      -14.611570
    4      -10.748938
    5       -9.614322
    6       -7.832378
    7       -6.889517
    8       -5.137615
    9       -0.692458
   10        1.324943
   11        2.133377
   12        2.531386
 
  0.1666667E+00  0.1666667E+00  0.0000000E+00  0.4629630E-02
    1      -21.531984
    2      -17.843848
    3      -14.165499
    4      -10.671316
    5       -9.531930
    6       -8.055085
    7       -6.978702
    8       -5.457167
    9       -0.295953
   10        1.420188
   11        2.229607
   12        2.629187
 
  0.2083333E+00  0.1666667E+00  0.0000000E+00  0.4629630E-02
    1      -21.442255
    2      -18.197481
    3      -13.702158
    4      -10.570953
    5       -9.426239
    6       -8.303763
    7       -7.123159
    8       -5.799593
    9        0.143471
   10        1.542710
   11        2.353275
   12        2.754947
 
  0.2500000E+00  0.1666667E+00  0.0000000E+00  0.4629630E-02
    1      -21.332733
    2      -18.540289
    3      -13.229368
    4      -10.447297
    5       -9.297439
    6       -8.571331
    7       -7.322591
    8       -6.149766
    9        0.609313
   10        1.692521
   11        2.504332
   12        2.908671
 
  0.2916667E+00  0.1666667E+00  0.0000000E+00  0.4629630E-02
    1      -21.203510
    2      -18.869395
    3      -12.752862
    4      -10.299514
    5       -9.145777
    6       -8.853815
    7       -7.571569
    8       -6.498235
    9        1.090534
   10        1.869608
   11        2.682716
   12        3.090363
 
  0.3333333E+00  0.1666667E+00  0.0000000E+00  0.4629630E-02
    1      -21.054699
    2      -19.183125
    3      -12.278057
    4      -10.126405
    5       -9.149815
    6       -8.971560
    7       -7.860724
    8       -6.838918
    9        1.579289
   10        2.073930
   11        2.888345
   12        3.300019
 
  0.3750000E+00  0.1666667E+00  0.0000000E+00  0.4629630E-02
    1      -20.886438
    2      -19.480396
    3      -11.810788
    4       -9.926368
    5       -9.460384
    6       -8.775169
    7       -8.177700
    8       -7.167739
    9        2.069620
   10        2.305420
   11        3.121114
   12        3.537633
 
  0.4166667E+00  0.1666667E+00  0.0000000E+00  0.4629630E-02
    1      -20.698892
    2      -19.760449
    3      -11.357498
    4       -9.788848
    5       -9.697571
    6       -8.557078
    7       -8.508094
    8       -7.481857
    9        2.556716
   10        2.563988
   11        3.380883
   12        3.803192
 
  0.4583333E+00  0.1666667E+00  0.0000000E+00  0.4629630E-02
    1      -20.492258
    2      -20.022721
    3      -10.924797
    4      -10.139990
    5       -9.438645
    6       -8.836797
    7       -8.317872
    8       -7.779214
    9        2.849526
   10        3.036487
   11        3.500977
   12        3.667452
 
  0.5000000E+00  0.1666667E+00  0.0000000E+00  0.2314815E-02
    1      -20.266774
    2      -20.266774
    3      -10.518141
    4      -10.518141
    5       -9.150193
    6       -9.150193
    7       -8.058278
    8       -8.058278
    9        3.161907
   10        3.161907
   11        3.505277
   12        3.505277
 