<?xml version="1.0" encoding="ISO-8859-1"?>
<modeling>
 <generator>
  <i name="program" type="string">vasp </i>
  <i name="version" type="string">5.3.5  </i>
  <i name="subversion" type="string">31Mar14 (build Mar 02 2015 18:14:16) complex                          parallel </i>
  <i name="platform" type="string">LinuxIFC </i>
  <i name="date" type="string">2018 08 09 </i>
  <i name="time" type="string">14:52:36 </i>
 </generator>
 <incar>
  <i type="string" name="SYSTEM">  gr</i>
  <i type="string" name="PREC">accurate : accuracy</i>
  <i type="string" name="ALGO"> FAST.</i>
  <i type="int" name="NELM">   100</i>
  <i type="int" name="NELMDL">    -3</i>
  <i type="int" name="NELMIN">     5</i>
  <i type="int" name="IBRION">     1</i>
  <i name="EDIFF">      0.00000000</i>
  <i name="EDIFFG">     -0.00000100</i>
  <i type="int" name="NSW">   400</i>
  <i type="int" name="ISIF">     2</i>
  <i name="ENCUT">   2000.00000000</i>
  <i type="int" name="ISMEAR">     0</i>
  <i name="SIGMA">      0.05000000</i>
  <i type="int" name="NWRITE">     2</i>
  <i type="logical" name="LWAVE"> F  </i>
  <i type="logical" name="LCHARG"> F  </i>
  <i type="int" name="NELM">   100</i>
 </incar>
 <kpoints>
  <generation param="Gamma">
   <v type="int" name="divisions">      24       36        1 </v>
   <v name="usershift">      0.00000000       0.00000000       0.00000000 </v>
   <v name="genvec1">      0.04166667       0.00000000       0.00000000 </v>
   <v name="genvec2">      0.00000000       0.02777778       0.00000000 </v>
   <v name="genvec3">      0.00000000       0.00000000       1.00000000 </v>
   <v name="shift">      0.00000000       0.00000000       0.00000000 </v>
  </generation>
  <varray name="kpointlist" >
   <v>       0.00000000       0.00000000       0.00000000 </v>
   <v>       0.04166667       0.00000000       0.00000000 </v>
   <v>       0.08333333       0.00000000       0.00000000 </v>
   <v>       0.12500000       0.00000000       0.00000000 </v>
   <v>       0.16666667       0.00000000       0.00000000 </v>
   <v>       0.20833333       0.00000000       0.00000000 </v>
   <v>       0.25000000       0.00000000       0.00000000 </v>
   <v>       0.29166667       0.00000000       0.00000000 </v>
   <v>       0.33333333       0.00000000       0.00000000 </v>
   <v>       0.37500000       0.00000000       0.00000000 </v>
   <v>       0.41666667       0.00000000       0.00000000 </v>
   <v>       0.45833333       0.00000000       0.00000000 </v>
   <v>       0.50000000       0.00000000       0.00000000 </v>
   <v>       0.00000000       0.02777778       0.00000000 </v>
   <v>       0.04166667       0.02777778       0.00000000 </v>
   <v>       0.08333333       0.02777778       0.00000000 </v>
   <v>       0.12500000       0.02777778       0.00000000 </v>
   <v>       0.16666667       0.02777778       0.00000000 </v>
   <v>       0.20833333       0.02777778       0.00000000 </v>
   <v>       0.25000000       0.02777778       0.00000000 </v>
   <v>       0.29166667       0.02777778       0.00000000 </v>
   <v>       0.33333333       0.02777778       0.00000000 </v>
   <v>       0.37500000       0.02777778       0.00000000 </v>
   <v>       0.41666667       0.02777778       0.00000000 </v>
   <v>       0.45833333       0.02777778       0.00000000 </v>
   <v>       0.50000000       0.02777778       0.00000000 </v>
   <v>       0.00000000       0.05555556       0.00000000 </v>
   <v>       0.04166667       0.05555556       0.00000000 </v>
   <v>       0.08333333       0.05555556       0.00000000 </v>
   <v>       0.12500000       0.05555556       0.00000000 </v>
   <v>       0.16666667       0.05555556       0.00000000 </v>
   <v>       0.20833333       0.05555556       0.00000000 </v>
   <v>       0.25000000       0.05555556       0.00000000 </v>
   <v>       0.29166667       0.05555556       0.00000000 </v>
   <v>       0.33333333       0.05555556       0.00000000 </v>
   <v>       0.37500000       0.05555556       0.00000000 </v>
   <v>       0.41666667       0.05555556       0.00000000 </v>
   <v>       0.45833333       0.05555556       0.00000000 </v>
   <v>       0.50000000       0.05555556       0.00000000 </v>
   <v>       0.00000000       0.08333333       0.00000000 </v>
   <v>       0.04166667       0.08333333       0.00000000 </v>
   <v>       0.08333333       0.08333333       0.00000000 </v>
   <v>       0.12500000       0.08333333       0.00000000 </v>
   <v>       0.16666667       0.08333333       0.00000000 </v>
   <v>       0.20833333       0.08333333       0.00000000 </v>
   <v>       0.25000000       0.08333333       0.00000000 </v>
   <v>       0.29166667       0.08333333       0.00000000 </v>
   <v>       0.33333333       0.08333333       0.00000000 </v>
   <v>       0.37500000       0.08333333       0.00000000 </v>
   <v>       0.41666667       0.08333333       0.00000000 </v>
   <v>       0.45833333       0.08333333       0.00000000 </v>
   <v>       0.50000000       0.08333333       0.00000000 </v>
   <v>       0.00000000       0.11111111       0.00000000 </v>
   <v>       0.04166667       0.11111111       0.00000000 </v>
   <v>       0.08333333       0.11111111       0.00000000 </v>
   <v>       0.12500000       0.11111111       0.00000000 </v>
   <v>       0.16666667       0.11111111       0.00000000 </v>
   <v>       0.20833333       0.11111111       0.00000000 </v>
   <v>       0.25000000       0.11111111       0.00000000 </v>
   <v>       0.29166667       0.11111111       0.00000000 </v>
   <v>       0.33333333       0.11111111       0.00000000 </v>
   <v>       0.37500000       0.11111111       0.00000000 </v>
   <v>       0.41666667       0.11111111       0.00000000 </v>
   <v>       0.45833333       0.11111111       0.00000000 </v>
   <v>       0.50000000       0.11111111       0.00000000 </v>
   <v>       0.00000000       0.13888889       0.00000000 </v>
   <v>       0.04166667       0.13888889       0.00000000 </v>
   <v>       0.08333333       0.13888889       0.00000000 </v>
   <v>       0.12500000       0.13888889       0.00000000 </v>
   <v>       0.16666667       0.13888889       0.00000000 </v>
   <v>       0.20833333       0.13888889       0.00000000 </v>
   <v>       0.25000000       0.13888889       0.00000000 </v>
   <v>       0.29166667       0.13888889       0.00000000 </v>
   <v>       0.33333333       0.13888889       0.00000000 </v>
   <v>       0.37500000       0.13888889       0.00000000 </v>
   <v>       0.41666667       0.13888889       0.00000000 </v>
   <v>       0.45833333       0.13888889       0.00000000 </v>
   <v>       0.50000000       0.13888889       0.00000000 </v>
   <v>       0.00000000       0.16666667       0.00000000 </v>
   <v>       0.04166667       0.16666667       0.00000000 </v>
   <v>       0.08333333       0.16666667       0.00000000 </v>
   <v>       0.12500000       0.16666667       0.00000000 </v>
   <v>       0.16666667       0.16666667       0.00000000 </v>
   <v>       0.20833333       0.16666667       0.00000000 </v>
   <v>       0.25000000       0.16666667       0.00000000 </v>
   <v>       0.29166667       0.16666667       0.00000000 </v>
   <v>       0.33333333       0.16666667       0.00000000 </v>
   <v>       0.37500000       0.16666667       0.00000000 </v>
   <v>       0.41666667       0.16666667       0.00000000 </v>
   <v>       0.45833333       0.16666667       0.00000000 </v>
   <v>       0.50000000       0.16666667       0.00000000 </v>
   <v>       0.00000000       0.19444444       0.00000000 </v>
   <v>       0.04166667       0.19444444       0.00000000 </v>
   <v>       0.08333333       0.19444444       0.00000000 </v>
   <v>       0.12500000       0.19444444       0.00000000 </v>
   <v>       0.16666667       0.19444444       0.00000000 </v>
   <v>       0.20833333       0.19444444       0.00000000 </v>
   <v>       0.25000000       0.19444444       0.00000000 </v>
   <v>       0.29166667       0.19444444       0.00000000 </v>
   <v>       0.33333333       0.19444444       0.00000000 </v>
   <v>       0.37500000       0.19444444       0.00000000 </v>
   <v>       0.41666667       0.19444444       0.00000000 </v>
   <v>       0.45833333       0.19444444       0.00000000 </v>
   <v>       0.50000000       0.19444444       0.00000000 </v>
   <v>       0.00000000       0.22222222       0.00000000 </v>
   <v>       0.04166667       0.22222222       0.00000000 </v>
   <v>       0.08333333       0.22222222       0.00000000 </v>
   <v>       0.12500000       0.22222222       0.00000000 </v>
   <v>       0.16666667       0.22222222       0.00000000 </v>
   <v>       0.20833333       0.22222222       0.00000000 </v>
   <v>       0.25000000       0.22222222       0.00000000 </v>
   <v>       0.29166667       0.22222222       0.00000000 </v>
   <v>       0.33333333       0.22222222       0.00000000 </v>
   <v>       0.37500000       0.22222222       0.00000000 </v>
   <v>       0.41666667       0.22222222       0.00000000 </v>
   <v>       0.45833333       0.22222222       0.00000000 </v>
   <v>       0.50000000       0.22222222       0.00000000 </v>
   <v>       0.00000000       0.25000000       0.00000000 </v>
   <v>       0.04166667       0.25000000       0.00000000 </v>
   <v>       0.08333333       0.25000000       0.00000000 </v>
   <v>       0.12500000       0.25000000       0.00000000 </v>
   <v>       0.16666667       0.25000000       0.00000000 </v>
   <v>       0.20833333       0.25000000       0.00000000 </v>
   <v>       0.25000000       0.25000000       0.00000000 </v>
   <v>       0.29166667       0.25000000       0.00000000 </v>
   <v>       0.33333333       0.25000000       0.00000000 </v>
   <v>       0.37500000       0.25000000       0.00000000 </v>
   <v>       0.41666667       0.25000000       0.00000000 </v>
   <v>       0.45833333       0.25000000       0.00000000 </v>
   <v>       0.50000000       0.25000000       0.00000000 </v>
   <v>       0.00000000       0.27777778       0.00000000 </v>
   <v>       0.04166667       0.27777778       0.00000000 </v>
   <v>       0.08333333       0.27777778       0.00000000 </v>
   <v>       0.12500000       0.27777778       0.00000000 </v>
   <v>       0.16666667       0.27777778       0.00000000 </v>
   <v>       0.20833333       0.27777778       0.00000000 </v>
   <v>       0.25000000       0.27777778       0.00000000 </v>
   <v>       0.29166667       0.27777778       0.00000000 </v>
   <v>       0.33333333       0.27777778       0.00000000 </v>
   <v>       0.37500000       0.27777778       0.00000000 </v>
   <v>       0.41666667       0.27777778       0.00000000 </v>
   <v>       0.45833333       0.27777778       0.00000000 </v>
   <v>       0.50000000       0.27777778       0.00000000 </v>
   <v>       0.00000000       0.30555556       0.00000000 </v>
   <v>       0.04166667       0.30555556       0.00000000 </v>
   <v>       0.08333333       0.30555556       0.00000000 </v>
   <v>       0.12500000       0.30555556       0.00000000 </v>
   <v>       0.16666667       0.30555556       0.00000000 </v>
   <v>       0.20833333       0.30555556       0.00000000 </v>
   <v>       0.25000000       0.30555556       0.00000000 </v>
   <v>       0.29166667       0.30555556       0.00000000 </v>
   <v>       0.33333333       0.30555556       0.00000000 </v>
   <v>       0.37500000       0.30555556       0.00000000 </v>
   <v>       0.41666667       0.30555556       0.00000000 </v>
   <v>       0.45833333       0.30555556       0.00000000 </v>
   <v>       0.50000000       0.30555556       0.00000000 </v>
   <v>       0.00000000       0.33333333       0.00000000 </v>
   <v>       0.04166667       0.33333333       0.00000000 </v>
   <v>       0.08333333       0.33333333       0.00000000 </v>
   <v>       0.12500000       0.33333333       0.00000000 </v>
   <v>       0.16666667       0.33333333       0.00000000 </v>
   <v>       0.20833333       0.33333333       0.00000000 </v>
   <v>       0.25000000       0.33333333       0.00000000 </v>
   <v>       0.29166667       0.33333333       0.00000000 </v>
   <v>       0.33333333       0.33333333       0.00000000 </v>
   <v>       0.37500000       0.33333333       0.00000000 </v>
   <v>       0.41666667       0.33333333       0.00000000 </v>
   <v>       0.45833333       0.33333333       0.00000000 </v>
   <v>       0.50000000       0.33333333       0.00000000 </v>
   <v>       0.00000000       0.36111111       0.00000000 </v>
   <v>       0.04166667       0.36111111       0.00000000 </v>
   <v>       0.08333333       0.36111111       0.00000000 </v>
   <v>       0.12500000       0.36111111       0.00000000 </v>
   <v>       0.16666667       0.36111111       0.00000000 </v>
   <v>       0.20833333       0.36111111       0.00000000 </v>
   <v>       0.25000000       0.36111111       0.00000000 </v>
   <v>       0.29166667       0.36111111       0.00000000 </v>
   <v>       0.33333333       0.36111111       0.00000000 </v>
   <v>       0.37500000       0.36111111       0.00000000 </v>
   <v>       0.41666667       0.36111111       0.00000000 </v>
   <v>       0.45833333       0.36111111       0.00000000 </v>
   <v>       0.50000000       0.36111111       0.00000000 </v>
   <v>       0.00000000       0.38888889       0.00000000 </v>
   <v>       0.04166667       0.38888889       0.00000000 </v>
   <v>       0.08333333       0.38888889       0.00000000 </v>
   <v>       0.12500000       0.38888889       0.00000000 </v>
   <v>       0.16666667       0.38888889       0.00000000 </v>
   <v>       0.20833333       0.38888889       0.00000000 </v>
   <v>       0.25000000       0.38888889       0.00000000 </v>
   <v>       0.29166667       0.38888889       0.00000000 </v>
   <v>       0.33333333       0.38888889       0.00000000 </v>
   <v>       0.37500000       0.38888889       0.00000000 </v>
   <v>       0.41666667       0.38888889       0.00000000 </v>
   <v>       0.45833333       0.38888889       0.00000000 </v>
   <v>       0.50000000       0.38888889       0.00000000 </v>
   <v>       0.00000000       0.41666667       0.00000000 </v>
   <v>       0.04166667       0.41666667       0.00000000 </v>
   <v>       0.08333333       0.41666667       0.00000000 </v>
   <v>       0.12500000       0.41666667       0.00000000 </v>
   <v>       0.16666667       0.41666667       0.00000000 </v>
   <v>       0.20833333       0.41666667       0.00000000 </v>
   <v>       0.25000000       0.41666667       0.00000000 </v>
   <v>       0.29166667       0.41666667       0.00000000 </v>
   <v>       0.33333333       0.41666667       0.00000000 </v>
   <v>       0.37500000       0.41666667       0.00000000 </v>
   <v>       0.41666667       0.41666667       0.00000000 </v>
   <v>       0.45833333       0.41666667       0.00000000 </v>
   <v>       0.50000000       0.41666667       0.00000000 </v>
   <v>       0.00000000       0.44444444       0.00000000 </v>
   <v>       0.04166667       0.44444444       0.00000000 </v>
   <v>       0.08333333       0.44444444       0.00000000 </v>
   <v>       0.12500000       0.44444444       0.00000000 </v>
   <v>       0.16666667       0.44444444       0.00000000 </v>
   <v>       0.20833333       0.44444444       0.00000000 </v>
   <v>       0.25000000       0.44444444       0.00000000 </v>
   <v>       0.29166667       0.44444444       0.00000000 </v>
   <v>       0.33333333       0.44444444       0.00000000 </v>
   <v>       0.37500000       0.44444444       0.00000000 </v>
   <v>       0.41666667       0.44444444       0.00000000 </v>
   <v>       0.45833333       0.44444444       0.00000000 </v>
   <v>       0.50000000       0.44444444       0.00000000 </v>
   <v>       0.00000000       0.47222222       0.00000000 </v>
   <v>       0.04166667       0.47222222       0.00000000 </v>
   <v>       0.08333333       0.47222222       0.00000000 </v>
   <v>       0.12500000       0.47222222       0.00000000 </v>
   <v>       0.16666667       0.47222222       0.00000000 </v>
   <v>       0.20833333       0.47222222       0.00000000 </v>
   <v>       0.25000000       0.47222222       0.00000000 </v>
   <v>       0.29166667       0.47222222       0.00000000 </v>
   <v>       0.33333333       0.47222222       0.00000000 </v>
   <v>       0.37500000       0.47222222       0.00000000 </v>
   <v>       0.41666667       0.47222222       0.00000000 </v>
   <v>       0.45833333       0.47222222       0.00000000 </v>
   <v>       0.50000000       0.47222222       0.00000000 </v>
   <v>       0.00000000       0.50000000       0.00000000 </v>
   <v>       0.04166667       0.50000000       0.00000000 </v>
   <v>       0.08333333       0.50000000       0.00000000 </v>
   <v>       0.12500000       0.50000000       0.00000000 </v>
   <v>       0.16666667       0.50000000       0.00000000 </v>
   <v>       0.20833333       0.50000000       0.00000000 </v>
   <v>       0.25000000       0.50000000       0.00000000 </v>
   <v>       0.29166667       0.50000000       0.00000000 </v>
   <v>       0.33333333       0.50000000       0.00000000 </v>
   <v>       0.37500000       0.50000000       0.00000000 </v>
   <v>       0.41666667       0.50000000       0.00000000 </v>
   <v>       0.45833333       0.50000000       0.00000000 </v>
   <v>       0.50000000       0.50000000       0.00000000 </v>
  </varray>
  <varray name="weights" >
   <v>       0.00115741 </v>
   <v>       0.00231481 </v>
   <v>       0.00231481 </v>
   <v>       0.00231481 </v>
   <v>       0.00231481 </v>
   <v>       0.00231481 </v>
   <v>       0.00231481 </v>
   <v>       0.00231481 </v>
   <v>       0.00231481 </v>
   <v>       0.00231481 </v>
   <v>       0.00231481 </v>
   <v>       0.00231481 </v>
   <v>       0.00115741 </v>
   <v>       0.00231481 </v>
   <v>       0.00462963 </v>
   <v>       0.00462963 </v>
   <v>       0.00462963 </v>
   <v>       0.00462963 </v>
   <v>       0.00462963 </v>
   <v>       0.00462963 </v>
   <v>       0.00462963 </v>
   <v>       0.00462963 </v>
   <v>       0.00462963 </v>
   <v>       0.00462963 </v>
   <v>       0.00462963 </v>
   <v>       0.00231481 </v>
   <v>       0.00231481 </v>
   <v>       0.00462963 </v>
   <v>       0.00462963 </v>
   <v>       0.00462963 </v>
   <v>       0.00462963 </v>
   <v>       0.00462963 </v>
   <v>       0.00462963 </v>
   <v>       0.00462963 </v>
   <v>       0.00462963 </v>
   <v>       0.00462963 </v>
   <v>       0.00462963 </v>
   <v>       0.00462963 </v>
   <v>       0.00231481 </v>
   <v>       0.00231481 </v>
   <v>       0.00462963 </v>
   <v>       0.00462963 </v>
   <v>       0.00462963 </v>
   <v>       0.00462963 </v>
   <v>       0.00462963 </v>
   <v>       0.00462963 </v>
   <v>       0.00462963 </v>
   <v>       0.00462963 </v>
   <v>       0.00462963 </v>
   <v>       0.00462963 </v>
   <v>       0.00462963 </v>
   <v>       0.00231481 </v>
   <v>       0.00231481 </v>
   <v>       0.00462963 </v>
   <v>       0.00462963 </v>
   <v>       0.00462963 </v>
   <v>       0.00462963 </v>
   <v>       0.00462963 </v>
   <v>       0.00462963 </v>
   <v>       0.00462963 </v>
   <v>       0.00462963 </v>
   <v>       0.00462963 </v>
   <v>       0.00462963 </v>
   <v>       0.00462963 </v>
   <v>       0.00231481 </v>
   <v>       0.00231481 </v>
   <v>       0.00462963 </v>
   <v>       0.00462963 </v>
   <v>       0.00462963 </v>
   <v>       0.00462963 </v>
   <v>       0.00462963 </v>
   <v>       0.00462963 </v>
   <v>       0.00462963 </v>
   <v>       0.00462963 </v>
   <v>       0.00462963 </v>
   <v>       0.00462963 </v>
   <v>       0.00462963 </v>
   <v>       0.00231481 </v>
   <v>       0.00231481 </v>
   <v>       0.00462963 </v>
   <v>       0.00462963 </v>
   <v>       0.00462963 </v>
   <v>       0.00462963 </v>
   <v>       0.00462963 </v>
   <v>       0.00462963 </v>
   <v>       0.00462963 </v>
   <v>       0.00462963 </v>
   <v>       0.00462963 </v>
   <v>       0.00462963 </v>
   <v>       0.00462963 </v>
   <v>       0.00231481 </v>
   <v>       0.00231481 </v>
   <v>       0.00462963 </v>
   <v>       0.00462963 </v>
   <v>       0.00462963 </v>
   <v>       0.00462963 </v>
   <v>       0.00462963 </v>
   <v>       0.00462963 </v>
   <v>       0.00462963 </v>
   <v>       0.00462963 </v>
   <v>       0.00462963 </v>
   <v>       0.00462963 </v>
   <v>       0.00462963 </v>
   <v>       0.00231481 </v>
   <v>       0.00231481 </v>
   <v>       0.00462963 </v>
   <v>       0.00462963 </v>
   <v>       0.00462963 </v>
   <v>       0.00462963 </v>
   <v>       0.00462963 </v>
   <v>       0.00462963 </v>
   <v>       0.00462963 </v>
   <v>       0.00462963 </v>
   <v>       0.00462963 </v>
   <v>       0.00462963 </v>
   <v>       0.00462963 </v>
   <v>       0.00231481 </v>
   <v>       0.00231481 </v>
   <v>       0.00462963 </v>
   <v>       0.00462963 </v>
   <v>       0.00462963 </v>
   <v>       0.00462963 </v>
   <v>       0.00462963 </v>
   <v>       0.00462963 </v>
   <v>       0.00462963 </v>
   <v>       0.00462963 </v>
   <v>       0.00462963 </v>
   <v>       0.00462963 </v>
   <v>       0.00462963 </v>
   <v>       0.00231481 </v>
   <v>       0.00231481 </v>
   <v>       0.00462963 </v>
   <v>       0.00462963 </v>
   <v>       0.00462963 </v>
   <v>       0.00462963 </v>
   <v>       0.00462963 </v>
   <v>       0.00462963 </v>
   <v>       0.00462963 </v>
   <v>       0.00462963 </v>
   <v>       0.00462963 </v>
   <v>       0.00462963 </v>
   <v>       0.00462963 </v>
   <v>       0.00231481 </v>
   <v>       0.00231481 </v>
   <v>       0.00462963 </v>
   <v>       0.00462963 </v>
   <v>       0.00462963 </v>
   <v>       0.00462963 </v>
   <v>       0.00462963 </v>
   <v>       0.00462963 </v>
   <v>       0.00462963 </v>
   <v>       0.00462963 </v>
   <v>       0.00462963 </v>
   <v>       0.00462963 </v>
   <v>       0.00462963 </v>
   <v>       0.00231481 </v>
   <v>       0.00231481 </v>
   <v>       0.00462963 </v>
   <v>       0.00462963 </v>
   <v>       0.00462963 </v>
   <v>       0.00462963 </v>
   <v>       0.00462963 </v>
   <v>       0.00462963 </v>
   <v>       0.00462963 </v>
   <v>       0.00462963 </v>
   <v>       0.00462963 </v>
   <v>       0.00462963 </v>
   <v>       0.00462963 </v>
   <v>       0.00231481 </v>
   <v>       0.00231481 </v>
   <v>       0.00462963 </v>
   <v>       0.00462963 </v>
   <v>       0.00462963 </v>
   <v>       0.00462963 </v>
   <v>       0.00462963 </v>
   <v>       0.00462963 </v>
   <v>       0.00462963 </v>
   <v>       0.00462963 </v>
   <v>       0.00462963 </v>
   <v>       0.00462963 </v>
   <v>       0.00462963 </v>
   <v>       0.00231481 </v>
   <v>       0.00231481 </v>
   <v>       0.00462963 </v>
   <v>       0.00462963 </v>
   <v>       0.00462963 </v>
   <v>       0.00462963 </v>
   <v>       0.00462963 </v>
   <v>       0.00462963 </v>
   <v>       0.00462963 </v>
   <v>       0.00462963 </v>
   <v>       0.00462963 </v>
   <v>       0.00462963 </v>
   <v>       0.00462963 </v>
   <v>       0.00231481 </v>
   <v>       0.00231481 </v>
   <v>       0.00462963 </v>
   <v>       0.00462963 </v>
   <v>       0.00462963 </v>
   <v>       0.00462963 </v>
   <v>       0.00462963 </v>
   <v>       0.00462963 </v>
   <v>       0.00462963 </v>
   <v>       0.00462963 </v>
   <v>       0.00462963 </v>
   <v>       0.00462963 </v>
   <v>       0.00462963 </v>
   <v>       0.00231481 </v>
   <v>       0.00231481 </v>
   <v>       0.00462963 </v>
   <v>       0.00462963 </v>
   <v>       0.00462963 </v>
   <v>       0.00462963 </v>
   <v>       0.00462963 </v>
   <v>       0.00462963 </v>
   <v>       0.00462963 </v>
   <v>       0.00462963 </v>
   <v>       0.00462963 </v>
   <v>       0.00462963 </v>
   <v>       0.00462963 </v>
   <v>       0.00231481 </v>
   <v>       0.00231481 </v>
   <v>       0.00462963 </v>
   <v>       0.00462963 </v>
   <v>       0.00462963 </v>
   <v>       0.00462963 </v>
   <v>       0.00462963 </v>
   <v>       0.00462963 </v>
   <v>       0.00462963 </v>
   <v>       0.00462963 </v>
   <v>       0.00462963 </v>
   <v>       0.00462963 </v>
   <v>       0.00462963 </v>
   <v>       0.00231481 </v>
   <v>       0.00115741 </v>
   <v>       0.00231481 </v>
   <v>       0.00231481 </v>
   <v>       0.00231481 </v>
   <v>       0.00231481 </v>
   <v>       0.00231481 </v>
   <v>       0.00231481 </v>
   <v>       0.00231481 </v>
   <v>       0.00231481 </v>
   <v>       0.00231481 </v>
   <v>       0.00231481 </v>
   <v>       0.00231481 </v>
   <v>       0.00115741 </v>
  </varray>
 </kpoints>
 <parameters>
  <separator name="general" >
   <i type="string" name="SYSTEM">gr</i>
   <i type="logical" name="LCOMPAT"> F  </i>
  </separator>
  <separator name="electronic" >
   <i type="string" name="PREC">accura</i>
   <i name="ENMAX">   2000.00000000</i>
   <i name="ENAUG">    644.87300000</i>
   <i name="EDIFF">      0.00000000</i>
   <i type="int" name="IALGO">    68</i>
   <i type="int" name="IWAVPR">    11</i>
   <i type="int" name="NBANDS">    12</i>
   <i name="NELECT">     16.00000000</i>
   <i type="int" name="TURBO">     0</i>
   <i type="int" name="IRESTART">     0</i>
   <i type="int" name="NREBOOT">     0</i>
   <i type="int" name="NMIN">     0</i>
   <i name="EREF">      0.00000000</i>
   <separator name="electronic smearing" >
    <i type="int" name="ISMEAR">     0</i>
    <i name="SIGMA">      0.05000000</i>
    <i name="KSPACING">      0.50000000</i>
    <i type="logical" name="KGAMMA"> T  </i>
   </separator>
   <separator name="electronic projectors" >
    <i type="logical" name="LREAL"> F  </i>
    <v name="ROPT">      0.00000000</v>
    <i type="int" name="LMAXPAW">  -100</i>
    <i type="int" name="LMAXMIX">     2</i>
    <i type="logical" name="NLSPLINE"> F  </i>
   </separator>
   <separator name="electronic startup" >
    <i type="int" name="ISTART">     0</i>
    <i type="int" name="ICHARG">     2</i>
    <i type="int" name="INIWAV">     1</i>
   </separator>
   <separator name="electronic spin" >
    <i type="int" name="ISPIN">     1</i>
    <i type="logical" name="LNONCOLLINEAR"> F  </i>
    <v name="MAGMOM">      1.00000000      1.00000000      1.00000000      1.00000000</v>
    <i name="NUPDOWN">     -1.00000000</i>
    <i type="logical" name="LSORBIT"> F  </i>
    <v name="SAXIS">      0.00000000      0.00000000      1.00000000</v>
    <i type="logical" name="LSPIRAL"> F  </i>
    <v name="QSPIRAL">      0.00000000      0.00000000      0.00000000</v>
    <i type="logical" name="LZEROZ"> F  </i>
   </separator>
   <separator name="electronic exchange-correlation" >
    <i type="logical" name="LASPH"> F  </i>
    <i type="logical" name="LMETAGGA"> F  </i>
   </separator>
   <separator name="electronic convergence" >
    <i type="int" name="NELM">   100</i>
    <i type="int" name="NELMDL">    -3</i>
    <i type="int" name="NELMIN">     5</i>
    <i name="ENINI">   2000.00000000</i>
    <separator name="electronic convergence detail" >
     <i type="logical" name="LDIAG"> T  </i>
     <i type="logical" name="LSUBROT"> F  </i>
     <i name="WEIMIN">      0.00100000</i>
     <i name="EBREAK">      0.00000000</i>
     <i name="DEPER">      0.30000000</i>
     <i type="int" name="NRMM">     4</i>
     <i name="TIME">      0.40000000</i>
    </separator>
   </separator>
   <separator name="electronic mixer" >
    <i name="AMIX">      0.40000000</i>
    <i name="BMIX">      1.00000000</i>
    <i name="AMIN">      0.10000000</i>
    <i name="AMIX_MAG">      1.60000000</i>
    <i name="BMIX_MAG">      1.00000000</i>
    <separator name="electronic mixer details" >
     <i type="int" name="IMIX">     4</i>
     <i type="int" name="MAXMIX">   -45</i>
     <i name="WC">    100.00000000</i>
     <i type="int" name="INIMIX">     1</i>
     <i type="int" name="MIXPRE">     1</i>
     <i type="int" name="MREMOVE">     5</i>
    </separator>
   </separator>
   <separator name="electronic dipolcorrection" >
    <i type="logical" name="LDIPOL"> F  </i>
    <i type="logical" name="LMONO"> F  </i>
    <i type="int" name="IDIPOL">     0</i>
    <i name="EPSILON">      1.00000000</i>
    <v name="DIPOL">   -100.00000000   -100.00000000   -100.00000000</v>
    <i name="EFIELD">      0.00000000</i>
   </separator>
  </separator>
  <separator name="grids" >
   <i type="int" name="NGX">    64</i>
   <i type="int" name="NGY">    36</i>
   <i type="int" name="NGZ">   294</i>
   <i type="int" name="NGXF">   128</i>
   <i type="int" name="NGYF">    72</i>
   <i type="int" name="NGZF">   588</i>
   <i type="logical" name="ADDGRID"> F  </i>
  </separator>
  <separator name="ionic" >
   <i type="int" name="NSW">   400</i>
   <i type="int" name="IBRION">     1</i>
   <i type="int" name="ISIF">     2</i>
   <i name="PSTRESS">      0.00000000</i>
   <i name="EDIFFG">     -0.00000100</i>
   <i type="int" name="NFREE">     0</i>
   <i name="POTIM">      0.50000000</i>
   <i name="SMASS">     -3.00000000</i>
   <i name="SCALEE">      1.00000000</i>
  </separator>
  <separator name="ionic md" >
   <i name="TEBEG">      0.00010000</i>
   <i name="TEEND">      0.00010000</i>
   <i type="int" name="NBLOCK">     1</i>
   <i type="int" name="KBLOCK">   400</i>
   <i type="int" name="NPACO">   256</i>
   <i name="APACO">     16.00000000</i>
  </separator>
  <separator name="symmetry" >
   <i type="int" name="ISYM">     2</i>
   <i name="SYMPREC">      0.00001000</i>
  </separator>
  <separator name="dos" >
   <i type="logical" name="LORBIT"> F  </i>
   <v name="RWIGS">     -1.00000000</v>
   <i type="int" name="NEDOS">   301</i>
   <i name="EMIN">     10.00000000</i>
   <i name="EMAX">    -10.00000000</i>
   <i name="EFERMI">      0.00000000</i>
  </separator>
  <separator name="writing" >
   <i type="int" name="NWRITE">     2</i>
   <i type="logical" name="LWAVE"> F  </i>
   <i type="logical" name="LCHARG"> F  </i>
   <i type="logical" name="LPARD"> F  </i>
   <i type="logical" name="LVTOT"> F  </i>
   <i type="logical" name="LVHAR"> F  </i>
   <i type="logical" name="LELF"> F  </i>
   <i type="logical" name="LOPTICS"> F  </i>
   <v name="STM">      0.00000000      0.00000000      0.00000000      0.00000000      0.00000000      0.00000000      0.00000000</v>
  </separator>
  <separator name="performance" >
   <i type="int" name="NPAR">     4</i>
   <i type="int" name="NSIM">     4</i>
   <i type="int" name="NBLK">    -1</i>
   <i type="logical" name="LPLANE"> T  </i>
   <i type="logical" name="LSCALAPACK"> F  </i>
   <i type="logical" name="LSCAAWARE"> F  </i>
   <i type="logical" name="LSCALU"> F  </i>
   <i type="logical" name="LASYNC"> F  </i>
   <i type="logical" name="LORBITALREAL"> F  </i>
  </separator>
  <separator name="miscellaneous" >
   <i type="int" name="IDIOT">     3</i>
   <i type="logical" name="LMUSIC"> F  </i>
   <v name="POMASS">     12.01100000</v>
   <v name="DARWINR">      0.00000000</v>
   <v name="DARWINV">      1.00000000</v>
   <i type="logical" name="LCORR"> T  </i>
  </separator>
  <i type="logical" name="GGA_COMPAT"> T  </i>
  <i type="logical" name="LBERRY"> F  </i>
  <i type="int" name="ICORELEVEL">     0</i>
  <i type="logical" name="LDAU"> F  </i>
  <i type="int" name="I_CONSTRAINED_M">     0</i>
  <separator name="electronic exchange-correlation" >
   <i type="string" name="GGA">--</i>
   <i type="int" name="VOSKOWN">     0</i>
   <i type="logical" name="LHFCALC"> F  </i>
   <i type="string" name="PRECFOCK"></i>
   <i type="logical" name="LSYMGRAD"> F  </i>
   <i type="logical" name="LHFONE"> F  </i>
   <i type="logical" name="LRHFCALC"> F  </i>
   <i type="logical" name="LTHOMAS"> F  </i>
   <i type="logical" name="LMODELHF"> F  </i>
   <i name="ENCUT4O">     -1.00000000</i>
   <i type="int" name="EXXOEP">     0</i>
   <i type="int" name="FOURORBIT">     0</i>
   <i name="AEXX">      0.00000000</i>
   <i name="HFALPHA">      0.00000000</i>
   <i name="MCALPHA">      0.00000000</i>
   <i name="ALDAX">      1.00000000</i>
   <i name="AGGAX">      1.00000000</i>
   <i name="ALDAC">      1.00000000</i>
   <i name="AGGAC">      1.00000000</i>
   <i type="int" name="NKREDX">     1</i>
   <i type="int" name="NKREDY">     1</i>
   <i type="int" name="NKREDZ">     1</i>
   <i type="logical" name="SHIFTRED"> F  </i>
   <i type="logical" name="ODDONLY"> F  </i>
   <i type="logical" name="EVENONLY"> F  </i>
   <i type="int" name="LMAXFOCK">     0</i>
   <i type="int" name="NMAXFOCKAE">     0</i>
   <i type="logical" name="LFOCKAEDFT"> F  </i>
   <i name="HFSCREEN">      0.00000000</i>
   <i name="HFSCREENC">      0.00000000</i>
   <i type="int" name="NBANDSGWLOW">     0</i>
  </separator>
  <separator name="vdW DFT" >
   <i type="logical" name="LUSE_VDW"> F  </i>
   <i name="Zab_VDW">     -0.84910000</i>
   <i name="PARAM1">      0.12340000</i>
   <i name="PARAM2">      1.00000000</i>
   <i name="PARAM3">      0.00000000</i>
  </separator>
  <separator name="model GW" >
   <i type="int" name="MODEL_GW">     0</i>
   <i name="MODEL_EPS0">     31.62568521</i>
   <i name="MODEL_ALPHA">      1.00000000</i>
  </separator>
  <separator name="linear response parameters" >
   <i type="logical" name="LEPSILON"> F  </i>
   <i type="logical" name="LRPA"> F  </i>
   <i type="logical" name="LNABLA"> F  </i>
   <i type="logical" name="LVEL"> F  </i>
   <i type="int" name="KINTER">     0</i>
   <i name="CSHIFT">      0.10000000</i>
   <i name="OMEGAMAX">     -1.00000000</i>
   <i name="DEG_THRESHOLD">      0.00200000</i>
  </separator>
  <separator name="orbital magnetization" >
   <i type="logical" name="NUCIND"> F  </i>
   <v name="MAGPOS">      0.00000000      0.00000000      0.00000000</v>
   <i type="logical" name="LNICSALL"> T  </i>
   <i type="logical" name="ORBITALMAG"> F  </i>
   <i type="logical" name="LMAGBLOCH"> F  </i>
   <i type="logical" name="LCHIMAG"> F  </i>
   <i type="logical" name="LGAUGE"> T  </i>
   <i type="int" name="MAGATOM">     0</i>
   <v name="MAGDIPOL">      0.00000000      0.00000000      0.00000000</v>
   <v name="AVECCONST">      0.00000000      0.00000000      0.00000000</v>
  </separator>
  <separator name="response functions" >
   <i type="logical" name="LADDER"> F  </i>
   <i type="logical" name="LFXC"> F  </i>
   <i type="logical" name="LHARTREE"> T  </i>
   <i type="int" name="IBSE">     0</i>
   <i type="logical" name="LTCTE"> F  </i>
   <i type="logical" name="LTETE"> F  </i>
   <i type="logical" name="LTRIPLET"> F  </i>
   <i type="logical" name="LFXCEPS"> F  </i>
   <i type="logical" name="LFXHEG"> F  </i>
   <i type="logical" name="L2ORDER"> F  </i>
   <i type="logical" name="LUSEW"> F  </i>
   <i name="ENCUTGW">     -2.00000000</i>
   <i name="ENCUTGWSOFT">     -2.00000000</i>
   <i name="ENCUTLF">     -1.00000000</i>
   <i type="int" name="LMAXMP2">    -1</i>
   <i name="SCISSOR">      0.00000000</i>
   <i type="int" name="NOMEGA">     0</i>
   <i type="int" name="NOMEGAR">     0</i>
   <i type="int" name="NBANDSGW">    -1</i>
   <i type="int" name="NBANDSO">    -1</i>
   <i type="int" name="NBANDSV">    -1</i>
   <i type="int" name="NELM">   100</i>
   <i type="int" name="DIM">     3</i>
   <i type="int" name="ANTIRES">     0</i>
   <i name="OMEGAMAX">    -30.00000000</i>
   <i name="OMEGAMIN">    -30.00000000</i>
   <i name="OMEGATL">   -200.00000000</i>
   <i type="int" name="OMEGAGRID">     0</i>
   <i name="CSHIFT">     -0.10000000</i>
   <i type="logical" name="SELFENERGY"> F  </i>
   <i type="logical" name="LSPECTRAL"> F  </i>
   <i type="logical" name="ODDONLYGW"> F  </i>
   <i type="logical" name="EVENONLYGW"> F  </i>
   <i type="int" name="NKREDLFX">     1</i>
   <i type="int" name="NKREDLFY">     1</i>
   <i type="int" name="NKREDLFZ">     1</i>
   <i type="int" name="MAXMEM">  1800</i>
   <i type="int" name="TELESCOPE">     0</i>
   <i type="int" name="TAUPAR">     1</i>
  </separator>
  <separator name="External order field" >
   <i name="OFIELD_KAPPA">      0.00000000</i>
   <v name="OFIELD_K">      0.00000000      0.00000000      0.00000000</v>
   <i name="OFIELD_Q6_NEAR">      0.00000000</i>
   <i name="OFIELD_Q6_FAR">      0.00000000</i>
   <i name="OFIELD_A">      0.00000000</i>
  </separator>
 </parameters>
 <atominfo>
  <atoms>       4 </atoms>
  <types>       1 </types>
  <array name="atoms" >
   <dimension dim="1">ion</dimension>
   <field type="string">element</field>
   <field type="int">atomtype</field>
   <set>
    <rc><c>C </c><c>   1</c></rc>
    <rc><c>C </c><c>   1</c></rc>
    <rc><c>C </c><c>   1</c></rc>
    <rc><c>C </c><c>   1</c></rc>
   </set>
  </array>
  <array name="atomtypes" >
   <dimension dim="1">type</dimension>
   <field type="int">atomspertype</field>
   <field type="string">element</field>
   <field>mass</field>
   <field>valence</field>
   <field type="string">pseudopotential</field>
   <set>
    <rc><c>   4</c><c>C </c><c>     12.01100000</c><c>      4.00000000</c><c> PAW_PBE C 08Apr2002                    </c></rc>
   </set>
  </array>
 </atominfo>
 <structure name="initialpos" >
  <crystal>
   <varray name="basis" >
    <v>       4.31577805       0.00000000       0.00000000 </v>
    <v>       0.00000000       2.46287704       0.00000000 </v>
    <v>       0.00000000       0.00000000      19.83566907 </v>
   </varray>
   <i name="volume">    210.83790140 </i>
   <varray name="rec_basis" >
    <v>       0.23170793       0.00000000       0.00000000 </v>
    <v>       0.00000000       0.40602920       0.00000000 </v>
    <v>       0.00000000       0.00000000       0.05041423 </v>
   </varray>
  </crystal>
  <varray name="positions" >
   <v>       0.99975412       0.00000000       0.00000000 </v>
   <v>       0.16691255       0.50000000       0.00000000 </v>
   <v>       0.49975412       0.50000000       0.00000000 </v>
   <v>       0.66691255       0.00000000       0.00000000 </v>
  </varray>
 </structure>
 <calculation>
  <scstep>
   <time name="dav">  296.64  297.22</time>
   <time name="total">  299.13  299.71</time>
   <energy>
    <i name="alphaZ">      6.18334092 </i>
    <i name="ewald">   2531.36074175 </i>
    <i name="hartreedc">  -2958.40116940 </i>
    <i name="XCdc">     54.98539036 </i>
    <i name="pawpsdc">    151.32577238 </i>
    <i name="pawaedc">   -155.92769107 </i>
    <i name="eentropy">     -0.00217571 </i>
    <i name="bandstr">    -29.77897504 </i>
    <i name="atom">    588.62352690 </i>
    <i name="e_fr_energy">    188.36876111 </i>
    <i name="e_wo_entrp">    188.37093682 </i>
    <i name="e_0_energy">    188.36984897 </i>
   </energy>
  </scstep>
  <scstep>
   <time name="dav">  455.02  455.63</time>
   <time name="total">  455.03  455.64</time>
   <energy>
    <i name="e_fr_energy">     -9.72220344 </i>
    <i name="e_wo_entrp">     -9.72129014 </i>
    <i name="e_0_energy">     -9.72174679 </i>
   </energy>
  </scstep>
  <scstep>
   <time name="dav">  346.46  346.86</time>
   <time name="total">  376.90  377.33</time>
   <energy>
    <i name="e_fr_energy">    -38.28402053 </i>
    <i name="e_wo_entrp">    -38.28400196 </i>
    <i name="e_0_energy">    -38.28401124 </i>
   </energy>
  </scstep>
  <scstep>
   <time name="diag">   79.45   79.86</time>
   <time name="diis">  335.48  338.36</time>
   <time name="orth">    3.08    3.08</time>
   <time name="total">  450.34  454.52</time>
   <energy>
    <i name="e_fr_energy">    -37.66763959 </i>
    <i name="e_wo_entrp">    -37.66760540 </i>
    <i name="e_0_energy">    -37.66762250 </i>
   </energy>
  </scstep>
  <scstep>
   <time name="diag">   78.84   79.66</time>
   <time name="diis">  333.72  337.19</time>
   <time name="orth">    3.07    3.10</time>
   <time name="total">  448.00  452.91</time>
   <energy>
    <i name="e_fr_energy">    -36.92547539 </i>
    <i name="e_wo_entrp">    -36.92544260 </i>
    <i name="e_0_energy">    -36.92545900 </i>
   </energy>
  </scstep>
  <scstep>
   <time name="diag">   79.64   79.82</time>
   <time name="diis">  366.68  367.50</time>
   <time name="orth">    3.08    3.08</time>
   <time name="total">  481.99  483.20</time>
   <energy>
    <i name="e_fr_energy">    -36.92668839 </i>
    <i name="e_wo_entrp">    -36.92665666 </i>
    <i name="e_0_energy">    -36.92667253 </i>
   </energy>
  </scstep>
  <scstep>
   <time name="diag">   79.18   79.71</time>
   <time name="diis">  333.74  336.07</time>
   <time name="orth">    3.11    3.19</time>
   <time name="total">  448.25  452.14</time>
   <energy>
    <i name="e_fr_energy">    -36.91747097 </i>
    <i name="e_wo_entrp">    -36.91744157 </i>
    <i name="e_0_energy">    -36.91745627 </i>
   </energy>
  </scstep>
  <scstep>
   <time name="diag">   78.94   79.73</time>
   <time name="diis">  335.70  337.88</time>
   <time name="orth">    3.09    3.10</time>
   <time name="total">  450.49  453.51</time>
   <energy>
    <i name="e_fr_energy">    -36.91190039 </i>
    <i name="e_wo_entrp">    -36.91187038 </i>
    <i name="e_0_energy">    -36.91188539 </i>
   </energy>
  </scstep>
  <scstep>
   <time name="diag">   79.20   79.72</time>
   <time name="diis">  320.64  323.04</time>
   <time name="orth">    3.08    3.08</time>
   <time name="total">  435.35  438.75</time>
   <energy>
    <i name="e_fr_energy">    -36.91157176 </i>
    <i name="e_wo_entrp">    -36.91154061 </i>
    <i name="e_0_energy">    -36.91155618 </i>
   </energy>
  </scstep>
  <scstep>
   <time name="diag">   79.73   79.75</time>
   <time name="diis">  323.88  324.04</time>
   <time name="orth">    3.08    3.08</time>
   <time name="total">  439.44  450.62</time>
   <energy>
    <i name="e_fr_energy">    -36.91136421 </i>
    <i name="e_wo_entrp">    -36.91133374 </i>
    <i name="e_0_energy">    -36.91134898 </i>
   </energy>
  </scstep>
  <scstep>
   <time name="diag">   79.68   79.70</time>
   <time name="diis">  325.95  326.01</time>
   <time name="orth">    3.10    3.10</time>
   <time name="total">  441.46  441.61</time>
   <energy>
    <i name="e_fr_energy">    -36.91388610 </i>
    <i name="e_wo_entrp">    -36.91385595 </i>
    <i name="e_0_energy">    -36.91387103 </i>
   </energy>
  </scstep>
  <scstep>
   <time name="diag">   79.69   79.72</time>
   <time name="diis">  324.51  324.58</time>
   <time name="orth">    3.10    3.10</time>
   <time name="total">  440.07  440.20</time>
   <energy>
    <i name="e_fr_energy">    -36.91432063 </i>
    <i name="e_wo_entrp">    -36.91429020 </i>
    <i name="e_0_energy">    -36.91430541 </i>
   </energy>
  </scstep>
  <scstep>
   <time name="diag">   79.65   79.67</time>
   <time name="diis">  330.20  330.37</time>
   <time name="orth">    3.10    3.10</time>
   <time name="total">  445.68  445.91</time>
   <energy>
    <i name="e_fr_energy">    -36.91459139 </i>
    <i name="e_wo_entrp">    -36.91456091 </i>
    <i name="e_0_energy">    -36.91457615 </i>
   </energy>
  </scstep>
  <scstep>
   <time name="diag">   79.76   79.79</time>
   <time name="diis">  327.05  327.33</time>
   <time name="orth">    3.10    3.10</time>
   <time name="total">  442.69  443.05</time>
   <energy>
    <i name="e_fr_energy">    -36.91467492 </i>
    <i name="e_wo_entrp">    -36.91464452 </i>
    <i name="e_0_energy">    -36.91465972 </i>
   </energy>
  </scstep>
  <scstep>
   <time name="diag">   79.73   79.76</time>
   <time name="diis">  328.42  328.48</time>
   <time name="orth">    3.08    3.08</time>
   <time name="total">  443.97  444.10</time>
   <energy>
    <i name="e_fr_energy">    -36.91468652 </i>
    <i name="e_wo_entrp">    -36.91465609 </i>
    <i name="e_0_energy">    -36.91467131 </i>
   </energy>
  </scstep>
  <scstep>
   <time name="diag">   79.77   79.79</time>
   <time name="diis">  323.29  323.34</time>
   <time name="orth">    3.08    3.08</time>
   <time name="total">  438.89  439.00</time>
   <energy>
    <i name="e_fr_energy">    -36.91469813 </i>
    <i name="e_wo_entrp">    -36.91466769 </i>
    <i name="e_0_energy">    -36.91468291 </i>
   </energy>
  </scstep>
  <scstep>
   <time name="diag">   79.72   79.74</time>
   <time name="diis">  332.33  332.44</time>
   <time name="orth">    3.10    3.10</time>
   <time name="total">  447.86  448.08</time>
   <energy>
    <i name="e_fr_energy">    -36.91470316 </i>
    <i name="e_wo_entrp">    -36.91467273 </i>
    <i name="e_0_energy">    -36.91468795 </i>
   </energy>
  </scstep>
  <scstep>
   <time name="diag">   79.74   79.76</time>
   <time name="diis">  321.79  321.87</time>
   <time name="orth">    3.08    3.08</time>
   <time name="total">  437.34  437.45</time>
   <energy>
    <i name="e_fr_energy">    -36.91470432 </i>
    <i name="e_wo_entrp">    -36.91467389 </i>
    <i name="e_0_energy">    -36.91468910 </i>
   </energy>
  </scstep>
  <scstep>
   <time name="diag">   79.65   79.67</time>
   <time name="diis">  337.09  337.16</time>
   <time name="orth">    3.10    3.10</time>
   <time name="total">  452.64  452.73</time>
   <energy>
    <i name="e_fr_energy">    -36.91470510 </i>
    <i name="e_wo_entrp">    -36.91467467 </i>
    <i name="e_0_energy">    -36.91468988 </i>
   </energy>
  </scstep>
  <scstep>
   <time name="diag">   79.66   79.72</time>
   <time name="diis">  253.82  253.99</time>
   <time name="orth">    3.15    3.16</time>
   <time name="total">  369.38  371.44</time>
   <energy>
    <i name="e_fr_energy">    -36.91470517 </i>
    <i name="e_wo_entrp">    -36.91467474 </i>
    <i name="e_0_energy">    -36.91468995 </i>
   </energy>
  </scstep>
  <scstep>
   <time name="diag">   79.64   79.68</time>
   <time name="diis">  248.54  248.69</time>
   <time name="orth">    3.10    3.10</time>
   <time name="total">  364.10  364.31</time>
   <energy>
    <i name="e_fr_energy">    -36.91470519 </i>
    <i name="e_wo_entrp">    -36.91467475 </i>
    <i name="e_0_energy">    -36.91468997 </i>
   </energy>
  </scstep>
  <scstep>
   <time name="diag">   79.63   79.64</time>
   <time name="diis">  223.50  223.91</time>
   <time name="orth">    3.08    3.10</time>
   <time name="total">  308.59  309.06</time>
   <energy>
    <i name="alphaZ">      6.18334092 </i>
    <i name="ewald">   2531.36074175 </i>
    <i name="hartreedc">  -3025.44387499 </i>
    <i name="XCdc">     57.37022784 </i>
    <i name="pawpsdc">    273.74175160 </i>
    <i name="pawaedc">   -278.87544148 </i>
    <i name="eentropy">     -0.00003043 </i>
    <i name="bandstr">   -189.87494730 </i>
    <i name="atom">    588.62352690 </i>
    <i name="e_fr_energy">    -36.91470519 </i>
    <i name="e_wo_entrp">    -36.91467475 </i>
    <i name="e_0_energy">    -36.91468997 </i>
   </energy>
  </scstep>
  <structure>
   <crystal>
    <varray name="basis" >
     <v>       4.31577805       0.00000000       0.00000000 </v>
     <v>       0.00000000       2.46287704       0.00000000 </v>
     <v>       0.00000000       0.00000000      19.83566907 </v>
    </varray>
    <i name="volume">    210.83790140 </i>
    <varray name="rec_basis" >
     <v>       0.23170793       0.00000000       0.00000000 </v>
     <v>       0.00000000       0.40602920       0.00000000 </v>
     <v>       0.00000000       0.00000000       0.05041423 </v>
    </varray>
   </crystal>
   <varray name="positions" >
    <v>       0.99975412       0.00000000       0.00000000 </v>
    <v>       0.16691255       0.50000000       0.00000000 </v>
    <v>       0.49975412       0.50000000       0.00000000 </v>
    <v>       0.66691255       0.00000000       0.00000000 </v>
   </varray>
  </structure>
  <varray name="forces" >
   <v>       0.00154581       0.00000000       0.00000000 </v>
   <v>      -0.00154581      -0.00000000       0.00000000 </v>
   <v>       0.00154581      -0.00000000       0.00000000 </v>
   <v>      -0.00154581       0.00000000       0.00000000 </v>
  </varray>
  <varray name="stress" >
   <v>     -16.58795750       0.00000000       0.00000000 </v>
   <v>       0.00000000      -0.01192086       0.00000000 </v>
   <v>       0.00000000       0.00000000      -0.01017306 </v>
  </varray>
  <energy>
   <i name="e_fr_energy">    -36.91470519 </i>
   <i name="e_wo_entrp">    -36.91468997 </i>
   <i name="e_0_energy">     -0.00003043 </i>
  </energy>
  <time name="totalsc"> 9419.10 9457.51</time>
 </calculation>
 <calculation>
  <scstep>
   <time name="dav">  322.66  324.23</time>
   <time name="total">  354.85  356.65</time>
   <energy>
    <i name="alphaZ">      6.18334092 </i>
    <i name="ewald">   2531.36138890 </i>
    <i name="hartreedc">  -3025.44416771 </i>
    <i name="XCdc">     57.37024682 </i>
    <i name="pawpsdc">    273.74179099 </i>
    <i name="pawaedc">   -278.87548129 </i>
    <i name="eentropy">     -0.00002888 </i>
    <i name="bandstr">   -189.87532114 </i>
    <i name="atom">    588.62352690 </i>
    <i name="e_fr_energy">    -36.91470450 </i>
    <i name="e_wo_entrp">    -36.91467562 </i>
    <i name="e_0_energy">    -36.91469006 </i>
   </energy>
  </scstep>
  <scstep>
   <time name="diag">   79.05   79.73</time>
   <time name="diis">  321.93  324.07</time>
   <time name="orth">    3.11    3.12</time>
   <time name="total">  435.22  438.27</time>
   <energy>
    <i name="e_fr_energy">    -36.91470454 </i>
    <i name="e_wo_entrp">    -36.91467561 </i>
    <i name="e_0_energy">    -36.91469008 </i>
   </energy>
  </scstep>
  <scstep>
   <time name="diag">   79.21   79.68</time>
   <time name="diis">  323.12  325.97</time>
   <time name="orth">    3.07    3.10</time>
   <time name="total">  436.63  440.30</time>
   <energy>
    <i name="e_fr_energy">    -36.91470451 </i>
    <i name="e_wo_entrp">    -36.91467549 </i>
    <i name="e_0_energy">    -36.91469000 </i>
   </energy>
  </scstep>
  <scstep>
   <time name="diag">   78.82   79.76</time>
   <time name="diis">  328.47  331.34</time>
   <time name="orth">    3.08    3.10</time>
   <time name="total">  441.74  445.81</time>
   <energy>
    <i name="e_fr_energy">    -36.91470451 </i>
    <i name="e_wo_entrp">    -36.91467551 </i>
    <i name="e_0_energy">    -36.91469001 </i>
   </energy>
  </scstep>
  <scstep>
   <time name="diag">   79.20   79.72</time>
   <time name="diis">  278.88  279.70</time>
   <time name="orth">    3.10    3.10</time>
   <time name="total">  392.47  393.94</time>
   <energy>
    <i name="e_fr_energy">    -36.91470451 </i>
    <i name="e_wo_entrp">    -36.91467551 </i>
    <i name="e_0_energy">    -36.91469001 </i>
   </energy>
  </scstep>
  <scstep>
   <time name="diag">   79.07   79.70</time>
   <time name="diis">  214.72  216.71</time>
   <time name="orth">    3.07    3.10</time>
   <time name="total">  328.06  330.98</time>
   <energy>
    <i name="e_fr_energy">    -36.91470451 </i>
    <i name="e_wo_entrp">    -36.91467551 </i>
    <i name="e_0_energy">    -36.91469001 </i>
   </energy>
  </scstep>
  <scstep>
   <time name="diag">   79.45   79.62</time>
   <time name="diis">  214.36  215.61</time>
   <time name="orth">    3.09    3.09</time>
   <time name="total">  329.60  331.10</time>
   <energy>
    <i name="e_fr_energy">    -36.91470451 </i>
    <i name="e_wo_entrp">    -36.91467551 </i>
    <i name="e_0_energy">    -36.91469001 </i>
   </energy>
  </scstep>
  <scstep>
   <time name="diag">   79.57   79.62</time>
   <time name="diis">  202.88  203.03</time>
   <time name="orth">    3.08    3.08</time>
   <time name="total">  318.11  318.41</time>
   <energy>
    <i name="e_fr_energy">    -36.91470451 </i>
    <i name="e_wo_entrp">    -36.91467551 </i>
    <i name="e_0_energy">    -36.91469001 </i>
   </energy>
  </scstep>
  <scstep>
   <time name="diag">   78.98   79.63</time>
   <time name="diis">  190.27  191.79</time>
   <time name="orth">    3.08    3.09</time>
   <time name="total">  304.73  307.22</time>
   <energy>
    <i name="e_fr_energy">    -36.91470451 </i>
    <i name="e_wo_entrp">    -36.91467551 </i>
    <i name="e_0_energy">    -36.91469001 </i>
   </energy>
  </scstep>
  <scstep>
   <time name="diag">   79.00   79.66</time>
   <time name="diis">  182.06  183.57</time>
   <time name="orth">    3.08    3.09</time>
   <time name="total">  266.52  268.72</time>
   <energy>
    <i name="alphaZ">      6.18334092 </i>
    <i name="ewald">   2531.36138890 </i>
    <i name="hartreedc">  -3025.44445788 </i>
    <i name="XCdc">     57.37025869 </i>
    <i name="pawpsdc">    273.74293429 </i>
    <i name="pawaedc">   -278.87662984 </i>
    <i name="eentropy">     -0.00002900 </i>
    <i name="bandstr">   -189.87503749 </i>
    <i name="atom">    588.62352690 </i>
    <i name="e_fr_energy">    -36.91470451 </i>
    <i name="e_wo_entrp">    -36.91467551 </i>
    <i name="e_0_energy">    -36.91469001 </i>
   </energy>
  </scstep>
  <structure>
   <crystal>
    <varray name="basis" >
     <v>       4.31577805       0.00000000       0.00000000 </v>
     <v>       0.00000000       2.46287704       0.00000000 </v>
     <v>       0.00000000       0.00000000      19.83566907 </v>
    </varray>
    <i name="volume">    210.83790140 </i>
    <varray name="rec_basis" >
     <v>       0.23170793       0.00000000       0.00000000 </v>
     <v>       0.00000000       0.40602920       0.00000000 </v>
     <v>       0.00000000       0.00000000       0.05041423 </v>
    </varray>
   </crystal>
   <varray name="positions" >
    <v>       0.99977140       0.00000000       0.00000000 </v>
    <v>       0.16689527       0.50000000       0.00000000 </v>
    <v>       0.49977140       0.50000000       0.00000000 </v>
    <v>       0.66689527       0.00000000       0.00000000 </v>
   </varray>
  </structure>
  <varray name="forces" >
   <v>      -0.00612053       0.00000000      -0.00000000 </v>
   <v>       0.00612053       0.00000000       0.00000000 </v>
   <v>      -0.00612053      -0.00000000      -0.00000000 </v>
   <v>       0.00612053       0.00000000       0.00000000 </v>
  </varray>
  <varray name="stress" >
   <v>     -16.60761077       0.00000000       0.00000000 </v>
   <v>       0.00000000       0.01277851       0.00000000 </v>
   <v>       0.00000000       0.00000000      -0.01008078 </v>
  </varray>
  <energy>
   <i name="e_fr_energy">    -36.91470451 </i>
   <i name="e_wo_entrp">    -36.91469001 </i>
   <i name="e_0_energy">     -0.00002900 </i>
  </energy>
  <time name="totalsc"> 3710.48 3736.65</time>
 </calculation>
 <calculation>
  <scstep>
   <time name="dav">  314.93  317.05</time>
   <time name="total">  347.50  349.93</time>
   <energy>
    <i name="alphaZ">      6.18334092 </i>
    <i name="ewald">   2531.36087161 </i>
    <i name="hartreedc">  -3025.44423609 </i>
    <i name="XCdc">     57.37024403 </i>
    <i name="pawpsdc">    273.74293406 </i>
    <i name="pawaedc">   -278.87662962 </i>
    <i name="eentropy">     -0.00003024 </i>
    <i name="bandstr">   -189.87472683 </i>
    <i name="atom">    588.62352690 </i>
    <i name="e_fr_energy">    -36.91470524 </i>
    <i name="e_wo_entrp">    -36.91467500 </i>
    <i name="e_0_energy">    -36.91469012 </i>
   </energy>
  </scstep>
  <scstep>
   <time name="diag">   78.78   79.57</time>
   <time name="diis">  320.19  323.48</time>
   <time name="orth">    3.08    3.08</time>
   <time name="total">  434.55  438.96</time>
   <energy>
    <i name="e_fr_energy">    -36.91470526 </i>
    <i name="e_wo_entrp">    -36.91467506 </i>
    <i name="e_0_energy">    -36.91469016 </i>
   </energy>
  </scstep>
  <scstep>
   <time name="diag">   79.01   79.68</time>
   <time name="diis">  322.97  325.55</time>
   <time name="orth">    3.10    3.10</time>
   <time name="total">  437.79  441.13</time>
   <energy>
    <i name="e_fr_energy">    -36.91470524 </i>
    <i name="e_wo_entrp">    -36.91467511 </i>
    <i name="e_0_energy">    -36.91469018 </i>
   </energy>
  </scstep>
  <scstep>
   <time name="diag">   79.52   79.65</time>
   <time name="diis">  330.45  331.08</time>
   <time name="orth">    3.10    3.10</time>
   <time name="total">  445.79  446.62</time>
   <energy>
    <i name="e_fr_energy">    -36.91470524 </i>
    <i name="e_wo_entrp">    -36.91467510 </i>
    <i name="e_0_energy">    -36.91469017 </i>
   </energy>
  </scstep>
  <scstep>
   <time name="diag">   79.39   79.74</time>
   <time name="diis">  260.21  260.61</time>
   <time name="orth">    3.08    3.08</time>
   <time name="total">  375.44  376.24</time>
   <energy>
    <i name="e_fr_energy">    -36.91470523 </i>
    <i name="e_wo_entrp">    -36.91467509 </i>
    <i name="e_0_energy">    -36.91469016 </i>
   </energy>
  </scstep>
  <scstep>
   <time name="diag">   79.53   79.67</time>
   <time name="diis">  217.63  218.02</time>
   <time name="orth">    3.14    3.20</time>
   <time name="total">  333.05  333.71</time>
   <energy>
    <i name="e_fr_energy">    -36.91470523 </i>
    <i name="e_wo_entrp">    -36.91467509 </i>
    <i name="e_0_energy">    -36.91469016 </i>
   </energy>
  </scstep>
  <scstep>
   <time name="diag">   79.47   79.61</time>
   <time name="diis">  217.03  217.15</time>
   <time name="orth">    3.08    3.08</time>
   <time name="total">  332.30  332.71</time>
   <energy>
    <i name="e_fr_energy">    -36.91470523 </i>
    <i name="e_wo_entrp">    -36.91467510 </i>
    <i name="e_0_energy">    -36.91469017 </i>
   </energy>
  </scstep>
  <scstep>
   <time name="diag">   78.93   79.66</time>
   <time name="diis">  200.61  201.40</time>
   <time name="orth">    3.08    3.10</time>
   <time name="total">  315.25  316.96</time>
   <energy>
    <i name="e_fr_energy">    -36.91470523 </i>
    <i name="e_wo_entrp">    -36.91467510 </i>
    <i name="e_0_energy">    -36.91469017 </i>
   </energy>
  </scstep>
  <scstep>
   <time name="diag">   78.91   79.65</time>
   <time name="diis">  190.24  191.78</time>
   <time name="orth">    3.08    3.08</time>
   <time name="total">  274.63  276.92</time>
   <energy>
    <i name="alphaZ">      6.18334092 </i>
    <i name="ewald">   2531.36087161 </i>
    <i name="hartreedc">  -3025.44402652 </i>
    <i name="XCdc">     57.37023520 </i>
    <i name="pawpsdc">    273.74203285 </i>
    <i name="pawaedc">   -278.87572449 </i>
    <i name="eentropy">     -0.00003014 </i>
    <i name="bandstr">   -189.87493157 </i>
    <i name="atom">    588.62352690 </i>
    <i name="e_fr_energy">    -36.91470523 </i>
    <i name="e_wo_entrp">    -36.91467510 </i>
    <i name="e_0_energy">    -36.91469017 </i>
   </energy>
  </scstep>
  <structure>
   <crystal>
    <varray name="basis" >
     <v>       4.31577805       0.00000000       0.00000000 </v>
     <v>       0.00000000       2.46287704       0.00000000 </v>
     <v>       0.00000000       0.00000000      19.83566907 </v>
    </varray>
    <i name="volume">    210.83790140 </i>
    <varray name="rec_basis" >
     <v>       0.23170793       0.00000000       0.00000000 </v>
     <v>       0.00000000       0.40602920       0.00000000 </v>
     <v>       0.00000000       0.00000000       0.05041423 </v>
    </varray>
   </crystal>
   <varray name="positions" >
    <v>       0.99975760       0.00000000      -0.00000000 </v>
    <v>       0.16690906       0.50000000       0.00000000 </v>
    <v>       0.49975760       0.50000000      -0.00000000 </v>
    <v>       0.66690906       0.00000000       0.00000000 </v>
   </varray>
  </structure>
  <varray name="forces" >
   <v>      -0.00000133       0.00000000       0.00000000 </v>
   <v>       0.00000133      -0.00000000       0.00000000 </v>
   <v>      -0.00000133      -0.00000000       0.00000000 </v>
   <v>       0.00000133      -0.00000000       0.00000000 </v>
  </varray>
  <varray name="stress" >
   <v>     -16.59193450       0.00000000       0.00000000 </v>
   <v>       0.00000000      -0.00690215       0.00000000 </v>
   <v>       0.00000000       0.00000000      -0.01012149 </v>
  </varray>
  <energy>
   <i name="e_fr_energy">    -36.91470523 </i>
   <i name="e_wo_entrp">    -36.91469017 </i>
   <i name="e_0_energy">     -0.00003014 </i>
  </energy>
  <time name="totalsc"> 3399.03 3416.63</time>
 </calculation>
 <calculation>
  <scstep>
   <time name="dav">  253.10  254.92</time>
   <time name="total">  285.54  287.74</time>
   <energy>
    <i name="alphaZ">      6.18334092 </i>
    <i name="ewald">   2531.36087150 </i>
    <i name="hartreedc">  -3025.44401984 </i>
    <i name="XCdc">     57.37023514 </i>
    <i name="pawpsdc">    273.74203437 </i>
    <i name="pawaedc">   -278.87572602 </i>
    <i name="eentropy">     -0.00003014 </i>
    <i name="bandstr">   -189.87493808 </i>
    <i name="atom">    588.62352690 </i>
    <i name="e_fr_energy">    -36.91470523 </i>
    <i name="e_wo_entrp">    -36.91467509 </i>
    <i name="e_0_energy">    -36.91469016 </i>
   </energy>
  </scstep>
  <scstep>
   <time name="diag">   79.02   79.69</time>
   <time name="diis">  154.56  155.51</time>
   <time name="orth">    3.09    3.09</time>
   <time name="total">  269.37  271.05</time>
   <energy>
    <i name="e_fr_energy">    -36.91470523 </i>
    <i name="e_wo_entrp">    -36.91467510 </i>
    <i name="e_0_energy">    -36.91469016 </i>
   </energy>
  </scstep>
  <scstep>
   <time name="diag">   79.41   79.67</time>
   <time name="diis">  154.16  155.14</time>
   <time name="orth">    3.09    3.09</time>
   <time name="total">  269.31  270.62</time>
   <energy>
    <i name="e_fr_energy">    -36.91470523 </i>
    <i name="e_wo_entrp">    -36.91467510 </i>
    <i name="e_0_energy">    -36.91469016 </i>
   </energy>
  </scstep>
  <scstep>
   <time name="diag">   79.55   79.67</time>
   <time name="diis">  151.55  152.64</time>
   <time name="orth">    3.08    3.08</time>
   <time name="total">  266.46  268.17</time>
   <energy>
    <i name="e_fr_energy">    -36.91470523 </i>
    <i name="e_wo_entrp">    -36.91467509 </i>
    <i name="e_0_energy">    -36.91469016 </i>
   </energy>
  </scstep>
  <scstep>
   <time name="diag">   78.95   79.70</time>
   <time name="diis">  151.42  152.88</time>
   <time name="orth">    3.08    3.12</time>
   <time name="total">  235.81  238.15</time>
   <energy>
    <i name="alphaZ">      6.18334092 </i>
    <i name="ewald">   2531.36087150 </i>
    <i name="hartreedc">  -3025.44401877 </i>
    <i name="XCdc">     57.37023518 </i>
    <i name="pawpsdc">    273.74203457 </i>
    <i name="pawaedc">   -278.87572621 </i>
    <i name="eentropy">     -0.00003014 </i>
    <i name="bandstr">   -189.87493919 </i>
    <i name="atom">    588.62352690 </i>
    <i name="e_fr_energy">    -36.91470523 </i>
    <i name="e_wo_entrp">    -36.91467509 </i>
    <i name="e_0_energy">    -36.91469016 </i>
   </energy>
  </scstep>
  <structure>
   <crystal>
    <varray name="basis" >
     <v>       4.31577805       0.00000000       0.00000000 </v>
     <v>       0.00000000       2.46287704       0.00000000 </v>
     <v>       0.00000000       0.00000000      19.83566907 </v>
    </varray>
    <i name="volume">    210.83790140 </i>
    <varray name="rec_basis" >
     <v>       0.23170793       0.00000000       0.00000000 </v>
     <v>       0.00000000       0.40602920       0.00000000 </v>
     <v>       0.00000000       0.00000000       0.05041423 </v>
    </varray>
   </crystal>
   <varray name="positions" >
    <v>       0.99975760       0.00000000      -0.00000000 </v>
    <v>       0.16690907       0.50000000       0.00000000 </v>
    <v>       0.49975760       0.50000000      -0.00000000 </v>
    <v>       0.66690907       0.00000000       0.00000000 </v>
   </varray>
  </structure>
  <varray name="forces" >
   <v>       0.00000052       0.00000000      -0.00000000 </v>
   <v>      -0.00000052      -0.00000000       0.00000000 </v>
   <v>       0.00000052      -0.00000000      -0.00000000 </v>
   <v>      -0.00000052       0.00000000       0.00000000 </v>
  </varray>
  <varray name="stress" >
   <v>     -16.59192613       0.00000000       0.00000000 </v>
   <v>       0.00000000      -0.00691653       0.00000000 </v>
   <v>       0.00000000       0.00000000      -0.01010261 </v>
  </varray>
  <energy>
   <i name="e_fr_energy">    -36.91470523 </i>
   <i name="e_wo_entrp">    -36.91469016 </i>
   <i name="e_0_energy">     -0.00003014 </i>
  </energy>
  <time name="totalsc"> 1421.68 1431.68</time>
  <eigenvalues>
   <array>
    <dimension dim="1">band</dimension>
    <dimension dim="2">kpoint</dimension>
    <dimension dim="3">spin</dimension>
    <field>eigene</field>
    <field>occ</field>
    <set>
     <set comment="spin 1">
      <set comment="kpoint 1">
       <r>  -22.1850    1.0000 </r>
       <r>  -17.1187    1.0000 </r>
       <r>  -15.9195    1.0000 </r>
       <r>  -10.3059    1.0000 </r>
       <r>   -9.0140    1.0000 </r>
       <r>   -5.8769    1.0000 </r>
       <r>   -5.7614    1.0000 </r>
       <r>   -5.2025    1.0000 </r>
       <r>   -1.1214    0.0000 </r>
       <r>    0.5321    0.0000 </r>
       <r>    1.3321    0.0000 </r>
       <r>    1.7189    0.0000 </r>
      </set>
      <set comment="kpoint 2">
       <r>  -22.1749    1.0000 </r>
       <r>  -17.2623    1.0000 </r>
       <r>  -15.7607    1.0000 </r>
       <r>  -10.2939    1.0000 </r>
       <r>   -9.0042    1.0000 </r>
       <r>   -5.9202    1.0000 </r>
       <r>   -5.7829    1.0000 </r>
       <r>   -5.2658    1.0000 </r>
       <r>   -1.0422    0.0000 </r>
       <r>    0.5457    0.0000 </r>
       <r>    1.3459    0.0000 </r>
       <r>    1.7329    0.0000 </r>
      </set>
      <set comment="kpoint 3">
       <r>  -22.1448    1.0000 </r>
       <r>  -17.5728    1.0000 </r>
       <r>  -15.4048    1.0000 </r>
       <r>  -10.2580    1.0000 </r>
       <r>   -8.9746    1.0000 </r>
       <r>   -6.0485    1.0000 </r>
       <r>   -5.8464    1.0000 </r>
       <r>   -5.4420    1.0000 </r>
       <r>   -0.8185    0.0000 </r>
       <r>    0.5865    0.0000 </r>
       <r>    1.3873    0.0000 </r>
       <r>    1.7748    0.0000 </r>
      </set>
      <set comment="kpoint 4">
       <r>  -22.0945    1.0000 </r>
       <r>  -17.9310    1.0000 </r>
       <r>  -14.9713    1.0000 </r>
       <r>  -10.1982    1.0000 </r>
       <r>   -8.9254    1.0000 </r>
       <r>   -6.2563    1.0000 </r>
       <r>   -5.9485    1.0000 </r>
       <r>   -5.7004    1.0000 </r>
       <r>   -0.4814    0.0000 </r>
       <r>    0.6546    0.0000 </r>
       <r>    1.4563    0.0000 </r>
       <r>    1.8447    0.0000 </r>
      </set>
      <set comment="kpoint 5">
       <r>  -22.0243    1.0000 </r>
       <r>  -18.2967    1.0000 </r>
       <r>  -14.5007    1.0000 </r>
       <r>  -10.1147    1.0000 </r>
       <r>   -8.8569    1.0000 </r>
       <r>   -6.5357    1.0000 </r>
       <r>   -6.0843    1.0000 </r>
       <r>   -6.0099    1.0000 </r>
       <r>   -0.0630    0.0000 </r>
       <r>    0.7500    0.0000 </r>
       <r>    1.5528    0.0000 </r>
       <r>    1.9425    0.0000 </r>
      </set>
      <set comment="kpoint 6">
       <r>  -21.9340    1.0000 </r>
       <r>  -18.6564    1.0000 </r>
       <r>  -14.0072    1.0000 </r>
       <r>  -10.0075    1.0000 </r>
       <r>   -8.7695    1.0000 </r>
       <r>   -6.8772    1.0000 </r>
       <r>   -6.3467    1.0000 </r>
       <r>   -6.2479    1.0000 </r>
       <r>    0.4119    0.0000 </r>
       <r>    0.8726    0.0000 </r>
       <r>    1.6769    0.0000 </r>
       <r>    2.0683    0.0000 </r>
      </set>
      <set comment="kpoint 7">
       <r>  -21.8238    1.0000 </r>
       <r>  -19.0044    1.0000 </r>
       <r>  -13.4971    1.0000 </r>
       <r>   -9.8768    1.0000 </r>
       <r>   -8.6636    1.0000 </r>
       <r>   -7.2712    1.0000 </r>
       <r>   -6.6949    1.0000 </r>
       <r>   -6.4331    1.0000 </r>
       <r>    0.9255    0.0000 </r>
       <r>    1.0225    0.0000 </r>
       <r>    1.8285    0.0000 </r>
       <r>    2.2220    0.0000 </r>
      </set>
      <set comment="kpoint 8">
       <r>  -21.6938    1.0000 </r>
       <r>  -19.3380    1.0000 </r>
       <r>  -12.9744    1.0000 </r>
       <r>   -9.7230    1.0000 </r>
       <r>   -8.5400    1.0000 </r>
       <r>   -7.7081    1.0000 </r>
       <r>   -7.0439    1.0000 </r>
       <r>   -6.6336    1.0000 </r>
       <r>    1.1997    0.0000 </r>
       <r>    1.4653    0.0000 </r>
       <r>    2.0074    0.0000 </r>
       <r>    2.4037    0.0000 </r>
      </set>
      <set comment="kpoint 9">
       <r>  -21.5440    1.0000 </r>
       <r>  -19.6556    1.0000 </r>
       <r>  -12.4418    1.0000 </r>
       <r>   -9.5463    1.0000 </r>
       <r>   -8.3994    1.0000 </r>
       <r>   -8.1791    1.0000 </r>
       <r>   -7.3866    1.0000 </r>
       <r>   -6.8439    1.0000 </r>
       <r>    1.4040    0.0000 </r>
       <r>    2.0213    0.0000 </r>
       <r>    2.2136    0.0000 </r>
       <r>    2.6133    0.0000 </r>
      </set>
      <set comment="kpoint 10">
       <r>  -21.3746    1.0000 </r>
       <r>  -19.9562    1.0000 </r>
       <r>  -11.9019    1.0000 </r>
       <r>   -9.3471    1.0000 </r>
       <r>   -8.6767    1.0000 </r>
       <r>   -8.2428    1.0000 </r>
       <r>   -7.7185    1.0000 </r>
       <r>   -7.0588    1.0000 </r>
       <r>    1.6355    0.0000 </r>
       <r>    2.4468    0.0000 </r>
       <r>    2.5842    0.0000 </r>
       <r>    2.8508    0.0000 </r>
      </set>
      <set comment="kpoint 11">
       <r>  -21.1857    1.0000 </r>
       <r>  -20.2392    1.0000 </r>
       <r>  -11.3574    1.0000 </r>
       <r>   -9.1940    1.0000 </r>
       <r>   -9.1259    1.0000 </r>
       <r>   -8.0715    1.0000 </r>
       <r>   -8.0361    1.0000 </r>
       <r>   -7.2741    1.0000 </r>
       <r>    1.8940    0.0000 </r>
       <r>    2.7064    0.0000 </r>
       <r>    3.1163    0.0000 </r>
       <r>    3.1385    0.0000 </r>
      </set>
      <set comment="kpoint 12">
       <r>  -20.9775    1.0000 </r>
       <r>  -20.5039    1.0000 </r>
       <r>  -10.8109    1.0000 </r>
       <r>   -9.7253    1.0000 </r>
       <r>   -8.8833    1.0000 </r>
       <r>   -8.3372    1.0000 </r>
       <r>   -7.8870    1.0000 </r>
       <r>   -7.4859    1.0000 </r>
       <r>    2.1796    0.0000 </r>
       <r>    2.8312    0.0000 </r>
       <r>    2.9909    0.0000 </r>
       <r>    3.4097    0.0000 </r>
      </set>
      <set comment="kpoint 13">
       <r>  -20.7501    1.0000 </r>
       <r>  -20.7501    1.0000 </r>
       <r>  -10.2657    1.0000 </r>
       <r>  -10.2657    1.0000 </r>
       <r>   -8.6200    1.0000 </r>
       <r>   -8.6200    1.0000 </r>
       <r>   -7.6910    1.0000 </r>
       <r>   -7.6910    1.0000 </r>
       <r>    2.4920    0.0000 </r>
       <r>    2.4920    0.0000 </r>
       <r>    3.2938    0.0000 </r>
       <r>    3.2938    0.0000 </r>
      </set>
      <set comment="kpoint 14">
       <r>  -22.1712    1.0000 </r>
       <r>  -17.1069    1.0000 </r>
       <r>  -15.9078    1.0000 </r>
       <r>  -10.2895    1.0000 </r>
       <r>   -9.0763    1.0000 </r>
       <r>   -5.9054    1.0000 </r>
       <r>   -5.8191    1.0000 </r>
       <r>   -5.1858    1.0000 </r>
       <r>   -1.1247    0.0000 </r>
       <r>    0.5507    0.0000 </r>
       <r>    1.3509    0.0000 </r>
       <r>    1.7380    0.0000 </r>
      </set>
      <set comment="kpoint 15">
       <r>  -22.1612    1.0000 </r>
       <r>  -17.2504    1.0000 </r>
       <r>  -15.7492    1.0000 </r>
       <r>  -10.2775    1.0000 </r>
       <r>   -9.0664    1.0000 </r>
       <r>   -5.9522    1.0000 </r>
       <r>   -5.8365    1.0000 </r>
       <r>   -5.2492    1.0000 </r>
       <r>   -1.0455    0.0000 </r>
       <r>    0.5643    0.0000 </r>
       <r>    1.3647    0.0000 </r>
       <r>    1.7520    0.0000 </r>
      </set>
      <set comment="kpoint 16">
       <r>  -22.1310    1.0000 </r>
       <r>  -17.5606    1.0000 </r>
       <r>  -15.3938    1.0000 </r>
       <r>  -10.2417    1.0000 </r>
       <r>   -9.0368    1.0000 </r>
       <r>   -6.0840    1.0000 </r>
       <r>   -5.8947    1.0000 </r>
       <r>   -5.4258    1.0000 </r>
       <r>   -0.8218    0.0000 </r>
       <r>    0.6052    0.0000 </r>
       <r>    1.4061    0.0000 </r>
       <r>    1.7939    0.0000 </r>
      </set>
      <set comment="kpoint 17">
       <r>  -22.0808    1.0000 </r>
       <r>  -17.9186    1.0000 </r>
       <r>  -14.9607    1.0000 </r>
       <r>  -10.1819    1.0000 </r>
       <r>   -8.9875    1.0000 </r>
       <r>   -6.2916    1.0000 </r>
       <r>   -5.9943    1.0000 </r>
       <r>   -5.6845    1.0000 </r>
       <r>   -0.4849    0.0000 </r>
       <r>    0.6733    0.0000 </r>
       <r>    1.4751    0.0000 </r>
       <r>    1.8638    0.0000 </r>
      </set>
      <set comment="kpoint 18">
       <r>  -22.0106    1.0000 </r>
       <r>  -18.2841    1.0000 </r>
       <r>  -14.4906    1.0000 </r>
       <r>  -10.0984    1.0000 </r>
       <r>   -8.9189    1.0000 </r>
       <r>   -6.5679    1.0000 </r>
       <r>   -6.1300    1.0000 </r>
       <r>   -5.9942    1.0000 </r>
       <r>   -0.0671    0.0000 </r>
       <r>    0.7686    0.0000 </r>
       <r>    1.5717    0.0000 </r>
       <r>    1.9616    0.0000 </r>
      </set>
      <set comment="kpoint 19">
       <r>  -21.9203    1.0000 </r>
       <r>  -18.6436    1.0000 </r>
       <r>  -13.9978    1.0000 </r>
       <r>   -9.9912    1.0000 </r>
       <r>   -8.8313    1.0000 </r>
       <r>   -6.9050    1.0000 </r>
       <r>   -6.3312    1.0000 </r>
       <r>   -6.2947    1.0000 </r>
       <r>    0.4069    0.0000 </r>
       <r>    0.8913    0.0000 </r>
       <r>    1.6958    0.0000 </r>
       <r>    2.0874    0.0000 </r>
      </set>
      <set comment="kpoint 20">
       <r>  -21.8101    1.0000 </r>
       <r>  -18.9914    1.0000 </r>
       <r>  -13.4885    1.0000 </r>
       <r>   -9.8606    1.0000 </r>
       <r>   -8.7253    1.0000 </r>
       <r>   -7.2940    1.0000 </r>
       <r>   -6.6794    1.0000 </r>
       <r>   -6.4816    1.0000 </r>
       <r>    0.9194    0.0000 </r>
       <r>    1.0412    0.0000 </r>
       <r>    1.8473    0.0000 </r>
       <r>    2.2411    0.0000 </r>
      </set>
      <set comment="kpoint 21">
       <r>  -21.6801    1.0000 </r>
       <r>  -19.3249    1.0000 </r>
       <r>  -12.9667    1.0000 </r>
       <r>   -9.7068    1.0000 </r>
       <r>   -8.6014    1.0000 </r>
       <r>   -7.7259    1.0000 </r>
       <r>   -7.0284    1.0000 </r>
       <r>   -6.6842    1.0000 </r>
       <r>    1.2183    0.0000 </r>
       <r>    1.4577    0.0000 </r>
       <r>    2.0263    0.0000 </r>
       <r>    2.4228    0.0000 </r>
      </set>
      <set comment="kpoint 22">
       <r>  -21.5304    1.0000 </r>
       <r>  -19.6424    1.0000 </r>
       <r>  -12.4351    1.0000 </r>
       <r>   -9.5302    1.0000 </r>
       <r>   -8.4604    1.0000 </r>
       <r>   -8.1924    1.0000 </r>
       <r>   -7.3711    1.0000 </r>
       <r>   -6.8964    1.0000 </r>
       <r>    1.4227    0.0000 </r>
       <r>    2.0121    0.0000 </r>
       <r>    2.2324    0.0000 </r>
       <r>    2.6324    0.0000 </r>
      </set>
      <set comment="kpoint 23">
       <r>  -21.3610    1.0000 </r>
       <r>  -19.9430    1.0000 </r>
       <r>  -11.8965    1.0000 </r>
       <r>   -9.3310    1.0000 </r>
       <r>   -8.6859    1.0000 </r>
       <r>   -8.3034    1.0000 </r>
       <r>   -7.7029    1.0000 </r>
       <r>   -7.1131    1.0000 </r>
       <r>    1.6542    0.0000 </r>
       <r>    2.4656    0.0000 </r>
       <r>    2.5734    0.0000 </r>
       <r>    2.8699    0.0000 </r>
      </set>
      <set comment="kpoint 24">
       <r>  -21.1721    1.0000 </r>
       <r>  -20.2258    1.0000 </r>
       <r>  -11.3535    1.0000 </r>
       <r>   -9.1996    1.0000 </r>
       <r>   -9.1099    1.0000 </r>
       <r>   -8.1315    1.0000 </r>
       <r>   -8.0205    1.0000 </r>
       <r>   -7.3299    1.0000 </r>
       <r>    1.9127    0.0000 </r>
       <r>    2.7252    0.0000 </r>
       <r>    3.1272    0.0000 </r>
       <r>    3.1354    0.0000 </r>
      </set>
      <set comment="kpoint 25">
       <r>  -20.9639    1.0000 </r>
       <r>  -20.4905    1.0000 </r>
       <r>  -10.8088    1.0000 </r>
       <r>   -9.7279    1.0000 </r>
       <r>   -8.8674    1.0000 </r>
       <r>   -8.3215    1.0000 </r>
       <r>   -7.9462    1.0000 </r>
       <r>   -7.5430    1.0000 </r>
       <r>    2.1983    0.0000 </r>
       <r>    2.8499    0.0000 </r>
       <r>    3.0097    0.0000 </r>
       <r>    3.4301    0.0000 </r>
      </set>
      <set comment="kpoint 26">
       <r>  -20.7367    1.0000 </r>
       <r>  -20.7367    1.0000 </r>
       <r>  -10.2657    1.0000 </r>
       <r>  -10.2657    1.0000 </r>
       <r>   -8.6042    1.0000 </r>
       <r>   -8.6042    1.0000 </r>
       <r>   -7.7493    1.0000 </r>
       <r>   -7.7493    1.0000 </r>
       <r>    2.5108    0.0000 </r>
       <r>    2.5108    0.0000 </r>
       <r>    3.3125    0.0000 </r>
       <r>    3.3125    0.0000 </r>
      </set>
      <set comment="kpoint 27">
       <r>  -22.1300    1.0000 </r>
       <r>  -17.0714    1.0000 </r>
       <r>  -15.8729    1.0000 </r>
       <r>  -10.2405    1.0000 </r>
       <r>   -9.2582    1.0000 </r>
       <r>   -5.9903    1.0000 </r>
       <r>   -5.9877    1.0000 </r>
       <r>   -5.1359    1.0000 </r>
       <r>   -1.1355    0.0000 </r>
       <r>    0.6066    0.0000 </r>
       <r>    1.4074    0.0000 </r>
       <r>    1.7952    0.0000 </r>
      </set>
      <set comment="kpoint 28">
       <r>  -22.1200    1.0000 </r>
       <r>  -17.2144    1.0000 </r>
       <r>  -15.7149    1.0000 </r>
       <r>  -10.2285    1.0000 </r>
       <r>   -9.2483    1.0000 </r>
       <r>   -6.0646    1.0000 </r>
       <r>   -5.9758    1.0000 </r>
       <r>   -5.1997    1.0000 </r>
       <r>   -1.0562    0.0000 </r>
       <r>    0.6202    0.0000 </r>
       <r>    1.4212    0.0000 </r>
       <r>    1.8092    0.0000 </r>
      </set>
      <set comment="kpoint 29">
       <r>  -22.0899    1.0000 </r>
       <r>  -17.5239    1.0000 </r>
       <r>  -15.3606    1.0000 </r>
       <r>  -10.1926    1.0000 </r>
       <r>   -9.2185    1.0000 </r>
       <r>   -6.2046    1.0000 </r>
       <r>   -6.0204    1.0000 </r>
       <r>   -5.3772    1.0000 </r>
       <r>   -0.8326    0.0000 </r>
       <r>    0.6610    0.0000 </r>
       <r>    1.4626    0.0000 </r>
       <r>    1.8511    0.0000 </r>
      </set>
      <set comment="kpoint 30">
       <r>  -22.0397    1.0000 </r>
       <r>  -17.8812    1.0000 </r>
       <r>  -14.9290    1.0000 </r>
       <r>  -10.1329    1.0000 </r>
       <r>   -9.1690    1.0000 </r>
       <r>   -6.4087    1.0000 </r>
       <r>   -6.1155    1.0000 </r>
       <r>   -5.6369    1.0000 </r>
       <r>   -0.4964    0.0000 </r>
       <r>    0.7291    0.0000 </r>
       <r>    1.5316    0.0000 </r>
       <r>    1.9210    0.0000 </r>
      </set>
      <set comment="kpoint 31">
       <r>  -21.9694    1.0000 </r>
       <r>  -18.2462    1.0000 </r>
       <r>  -14.4606    1.0000 </r>
       <r>  -10.0495    1.0000 </r>
       <r>   -9.1000    1.0000 </r>
       <r>   -6.6742    1.0000 </r>
       <r>   -6.2526    1.0000 </r>
       <r>   -5.9474    1.0000 </r>
       <r>   -0.0802    0.0000 </r>
       <r>    0.8245    0.0000 </r>
       <r>    1.6282    0.0000 </r>
       <r>    2.0188    0.0000 </r>
      </set>
      <set comment="kpoint 32">
       <r>  -21.8792    1.0000 </r>
       <r>  -18.6052    1.0000 </r>
       <r>  -13.9697    1.0000 </r>
       <r>   -9.9425    1.0000 </r>
       <r>   -9.0119    1.0000 </r>
       <r>   -6.9963    1.0000 </r>
       <r>   -6.4223    1.0000 </r>
       <r>   -6.2848    1.0000 </r>
       <r>    0.3911    0.0000 </r>
       <r>    0.9472    0.0000 </r>
       <r>    1.7522    0.0000 </r>
       <r>    2.1446    0.0000 </r>
      </set>
      <set comment="kpoint 33">
       <r>  -21.7691    1.0000 </r>
       <r>  -18.9526    1.0000 </r>
       <r>  -13.4628    1.0000 </r>
       <r>   -9.8120    1.0000 </r>
       <r>   -8.9051    1.0000 </r>
       <r>   -7.3689    1.0000 </r>
       <r>   -6.6332    1.0000 </r>
       <r>   -6.6160    1.0000 </r>
       <r>    0.9000    0.0000 </r>
       <r>    1.0971    0.0000 </r>
       <r>    1.9038    0.0000 </r>
       <r>    2.2983    0.0000 </r>
      </set>
      <set comment="kpoint 34">
       <r>  -21.6392    1.0000 </r>
       <r>  -19.2857    1.0000 </r>
[...]
       <r>   -9.2698    1.0000 </r>
       <r>   -5.5629    1.0000 </r>
       <r>   -5.5629    1.0000 </r>
       <r>   -0.4485    0.0000 </r>
       <r>   -0.4485    0.0000 </r>
       <r>    4.5560    0.0000 </r>
       <r>    4.5560    0.0000 </r>
      </set>
      <set comment="kpoint 209">
       <r>  -18.7526    1.0000 </r>
       <r>  -16.9511    1.0000 </r>
       <r>  -14.1179    1.0000 </r>
       <r>  -12.4739    1.0000 </r>
       <r>  -12.3732    1.0000 </r>
       <r>  -10.8483    1.0000 </r>
       <r>   -6.3618    1.0000 </r>
       <r>   -4.4761    1.0000 </r>
       <r>   -1.0729    0.0000 </r>
       <r>    1.0921    0.0000 </r>
       <r>    5.2762    0.0000 </r>
       <r>    6.0572    0.0000 </r>
      </set>
      <set comment="kpoint 210">
       <r>  -18.7431    1.0000 </r>
       <r>  -16.9435    1.0000 </r>
       <r>  -14.1958    1.0000 </r>
       <r>  -12.5462    1.0000 </r>
       <r>  -12.2876    1.0000 </r>
       <r>  -10.7784    1.0000 </r>
       <r>   -6.3532    1.0000 </r>
       <r>   -4.4795    1.0000 </r>
       <r>   -1.0811    0.0000 </r>
       <r>    1.0678    0.0000 </r>
       <r>    5.2895    0.0000 </r>
       <r>    6.0729    0.0000 </r>
      </set>
      <set comment="kpoint 211">
       <r>  -18.7145    1.0000 </r>
       <r>  -16.9213    1.0000 </r>
       <r>  -14.3933    1.0000 </r>
       <r>  -12.7328    1.0000 </r>
       <r>  -12.0670    1.0000 </r>
       <r>  -10.5997    1.0000 </r>
       <r>   -6.3274    1.0000 </r>
       <r>   -4.4900    1.0000 </r>
       <r>   -1.1043    0.0000 </r>
       <r>    0.9964    0.0000 </r>
       <r>    5.3293    0.0000 </r>
       <r>    6.1195    0.0000 </r>
      </set>
      <set comment="kpoint 212">
       <r>  -18.6671    1.0000 </r>
       <r>  -16.8856    1.0000 </r>
       <r>  -14.6509    1.0000 </r>
       <r>  -12.9826    1.0000 </r>
       <r>  -11.7710    1.0000 </r>
       <r>  -10.3651    1.0000 </r>
       <r>   -6.2848    1.0000 </r>
       <r>   -4.5092    1.0000 </r>
       <r>   -1.1376    0.0000 </r>
       <r>    0.8830    0.0000 </r>
       <r>    5.3952    0.0000 </r>
       <r>    6.1962    0.0000 </r>
      </set>
      <set comment="kpoint 213">
       <r>  -18.6009    1.0000 </r>
       <r>  -16.8392    1.0000 </r>
       <r>  -14.9284    1.0000 </r>
       <r>  -13.2614    1.0000 </r>
       <r>  -11.4393    1.0000 </r>
       <r>  -10.1122    1.0000 </r>
       <r>   -6.2259    1.0000 </r>
       <r>   -4.5392    1.0000 </r>
       <r>   -1.1741    0.0000 </r>
       <r>    0.7345    0.0000 </r>
       <r>    5.4852    0.0000 </r>
       <r>    6.3017    0.0000 </r>
      </set>
      <set comment="kpoint 214">
       <r>  -18.5160    1.0000 </r>
       <r>  -16.7876    1.0000 </r>
       <r>  -15.2013    1.0000 </r>
       <r>  -13.5507    1.0000 </r>
       <r>  -11.0942    1.0000 </r>
       <r>   -9.8640    1.0000 </r>
       <r>   -6.1513    1.0000 </r>
       <r>   -4.5825    1.0000 </r>
       <r>   -1.2053    0.0000 </r>
       <r>    0.5593    0.0000 </r>
       <r>    5.5817    0.0000 </r>
       <r>    5.8716    0.0000 </r>
      </set>
      <set comment="kpoint 215">
       <r>  -18.4129    1.0000 </r>
       <r>  -16.7419    1.0000 </r>
       <r>  -15.4486    1.0000 </r>
       <r>  -13.8406    1.0000 </r>
       <r>  -10.7498    1.0000 </r>
       <r>   -9.6360    1.0000 </r>
       <r>   -6.0619    1.0000 </r>
       <r>   -4.6413    1.0000 </r>
       <r>   -1.2232    0.0000 </r>
       <r>    0.3655    0.0000 </r>
       <r>    5.3740    0.0000 </r>
       <r>    5.7889    0.0000 </r>
      </set>
      <set comment="kpoint 216">
       <r>  -18.2919    1.0000 </r>
       <r>  -16.7238    1.0000 </r>
       <r>  -15.6431    1.0000 </r>
       <r>  -14.1248    1.0000 </r>
       <r>  -10.4169    1.0000 </r>
       <r>   -9.4405    1.0000 </r>
       <r>   -5.9591    1.0000 </r>
       <r>   -4.7170    1.0000 </r>
       <r>   -1.2204    0.0000 </r>
       <r>    0.1613    0.0000 </r>
       <r>    5.0146    0.0000 </r>
       <r>    5.9504    0.0000 </r>
      </set>
      <set comment="kpoint 217">
       <r>  -18.1535    1.0000 </r>
       <r>  -16.7654    1.0000 </r>
       <r>  -15.7494    1.0000 </r>
       <r>  -14.3994    1.0000 </r>
       <r>  -10.1049    1.0000 </r>
       <r>   -9.2879    1.0000 </r>
       <r>   -5.8443    1.0000 </r>
       <r>   -4.8099    1.0000 </r>
       <r>   -1.1918    0.0000 </r>
       <r>   -0.0464    0.0000 </r>
       <r>    4.7207    0.0000 </r>
       <r>    5.5405    0.0000 </r>
      </set>
      <set comment="kpoint 218">
       <r>  -17.9986    1.0000 </r>
       <r>  -16.8827    1.0000 </r>
       <r>  -15.7496    1.0000 </r>
       <r>  -14.6613    1.0000 </r>
       <r>   -9.8229    1.0000 </r>
       <r>   -9.1867    1.0000 </r>
       <r>   -5.7194    1.0000 </r>
       <r>   -4.9187    1.0000 </r>
       <r>   -1.1345    0.0000 </r>
       <r>   -0.2509    0.0000 </r>
       <r>    4.5089    0.0000 </r>
       <r>    5.1492    0.0000 </r>
      </set>
      <set comment="kpoint 219">
       <r>  -17.8283    1.0000 </r>
       <r>  -17.0543    1.0000 </r>
       <r>  -15.6638    1.0000 </r>
       <r>  -14.9078    1.0000 </r>
       <r>   -9.5800    1.0000 </r>
       <r>   -9.1436    1.0000 </r>
       <r>   -5.5868    1.0000 </r>
       <r>   -5.0406    1.0000 </r>
       <r>   -1.0477    0.0000 </r>
       <r>   -0.4466    0.0000 </r>
       <r>    4.3869    0.0000 </r>
       <r>    4.8269    0.0000 </r>
      </set>
      <set comment="kpoint 220">
       <r>  -17.6444    1.0000 </r>
       <r>  -17.2498    1.0000 </r>
       <r>  -15.5218    1.0000 </r>
       <r>  -15.1361    1.0000 </r>
       <r>   -9.3844    1.0000 </r>
       <r>   -9.1623    1.0000 </r>
       <r>   -5.4492    1.0000 </r>
       <r>   -5.1723    1.0000 </r>
       <r>   -0.9327    0.0000 </r>
       <r>   -0.6284    0.0000 </r>
       <r>    4.3587    0.0000 </r>
       <r>    4.5829    0.0000 </r>
      </set>
      <set comment="kpoint 221">
       <r>  -17.4498    1.0000 </r>
       <r>  -17.4498    1.0000 </r>
       <r>  -15.3426    1.0000 </r>
       <r>  -15.3426    1.0000 </r>
       <r>   -9.2434    1.0000 </r>
       <r>   -9.2434    1.0000 </r>
       <r>   -5.3098    1.0000 </r>
       <r>   -5.3098    1.0000 </r>
       <r>   -0.7918    0.0000 </r>
       <r>   -0.7918    0.0000 </r>
       <r>    4.4250    0.0000 </r>
       <r>    4.4250    0.0000 </r>
      </set>
      <set comment="kpoint 222">
       <r>  -18.3274    1.0000 </r>
       <r>  -17.4229    1.0000 </r>
       <r>  -13.7374    1.0000 </r>
       <r>  -12.9146    1.0000 </r>
       <r>  -12.0240    1.0000 </r>
       <r>  -11.2567    1.0000 </r>
       <r>   -5.9019    1.0000 </r>
       <r>   -4.9535    1.0000 </r>
       <r>   -0.5646    0.0000 </r>
       <r>    0.5201    0.0000 </r>
       <r>    5.8790    0.0000 </r>
       <r>    6.6198    0.0000 </r>
      </set>
      <set comment="kpoint 223">
       <r>  -18.3180    1.0000 </r>
       <r>  -17.4143    1.0000 </r>
       <r>  -13.8154    1.0000 </r>
       <r>  -12.9893    1.0000 </r>
       <r>  -11.9410    1.0000 </r>
       <r>  -11.1819    1.0000 </r>
       <r>   -5.8946    1.0000 </r>
       <r>   -4.9514    1.0000 </r>
       <r>   -0.5797    0.0000 </r>
       <r>    0.4978    0.0000 </r>
       <r>    5.8923    0.0000 </r>
       <r>    6.6364    0.0000 </r>
      </set>
      <set comment="kpoint 224">
       <r>  -18.2900    1.0000 </r>
       <r>  -17.3887    1.0000 </r>
       <r>  -14.0140    1.0000 </r>
       <r>  -13.1812    1.0000 </r>
       <r>  -11.7278    1.0000 </r>
       <r>  -10.9900    1.0000 </r>
       <r>   -5.8728    1.0000 </r>
       <r>   -4.9454    1.0000 </r>
       <r>   -0.6232    0.0000 </r>
       <r>    0.4326    0.0000 </r>
       <r>    5.9319    0.0000 </r>
       <r>    6.6856    0.0000 </r>
      </set>
      <set comment="kpoint 225">
       <r>  -18.2434    1.0000 </r>
       <r>  -17.3464    1.0000 </r>
       <r>  -14.2753    1.0000 </r>
       <r>  -13.4365    1.0000 </r>
       <r>  -11.4433    1.0000 </r>
       <r>  -10.7366    1.0000 </r>
       <r>   -5.8371    1.0000 </r>
       <r>   -4.9368    1.0000 </r>
       <r>   -0.6905    0.0000 </r>
       <r>    0.3293    0.0000 </r>
       <r>    5.9970    0.0000 </r>
       <r>    6.7661    0.0000 </r>
      </set>
      <set comment="kpoint 226">
       <r>  -18.1785    1.0000 </r>
       <r>  -17.2885    1.0000 </r>
       <r>  -14.5614    1.0000 </r>
       <r>  -13.7199    1.0000 </r>
       <r>  -11.1270    1.0000 </r>
       <r>  -10.4600    1.0000 </r>
       <r>   -5.7880    1.0000 </r>
       <r>   -4.9271    1.0000 </r>
       <r>   -0.7742    0.0000 </r>
       <r>    0.1949    0.0000 </r>
       <r>    6.0831    0.0000 </r>
       <r>    6.6277    0.0000 </r>
      </set>
      <set comment="kpoint 227">
       <r>  -18.0956    1.0000 </r>
       <r>  -17.2164    1.0000 </r>
       <r>  -14.8518    1.0000 </r>
       <r>  -14.0125    1.0000 </r>
       <r>  -10.8015    1.0000 </r>
       <r>  -10.1829    1.0000 </r>
       <r>   -5.7268    1.0000 </r>
       <r>   -4.9190    1.0000 </r>
       <r>   -0.8655    0.0000 </r>
       <r>    0.0378    0.0000 </r>
       <r>    6.0456    0.0000 </r>
       <r>    6.2657    0.0000 </r>
      </set>
      <set comment="kpoint 228">
       <r>  -17.9951    1.0000 </r>
       <r>  -17.1331    1.0000 </r>
       <r>  -15.1340    1.0000 </r>
       <r>  -14.3042    1.0000 </r>
       <r>  -10.4811    1.0000 </r>
       <r>   -9.9208    1.0000 </r>
       <r>   -5.6549    1.0000 </r>
       <r>   -4.9153    1.0000 </r>
       <r>   -0.9548    0.0000 </r>
       <r>   -0.1333    0.0000 </r>
       <r>    5.6095    0.0000 </r>
       <r>    6.1666    0.0000 </r>
      </set>
      <set comment="kpoint 229">
       <r>  -17.8778    1.0000 </r>
       <r>  -17.0441    1.0000 </r>
       <r>  -15.3969    1.0000 </r>
       <r>  -14.5886    1.0000 </r>
       <r>  -10.1770    1.0000 </r>
       <r>   -9.6855    1.0000 </r>
       <r>   -5.5741    1.0000 </r>
       <r>   -4.9194    1.0000 </r>
       <r>   -1.0329    0.0000 </r>
       <r>   -0.3101    0.0000 </r>
       <r>    5.2019    0.0000 </r>
       <r>    5.6922    0.0000 </r>
      </set>
      <set comment="kpoint 230">
       <r>  -17.7448    1.0000 </r>
       <r>  -16.9601    1.0000 </r>
       <r>  -15.6264    1.0000 </r>
       <r>  -14.8613    1.0000 </r>
       <r>   -9.8992    1.0000 </r>
       <r>   -9.4876    1.0000 </r>
       <r>   -5.4868    1.0000 </r>
       <r>   -4.9343    1.0000 </r>
       <r>   -1.0911    0.0000 </r>
       <r>   -0.4846    0.0000 </r>
       <r>    4.8610    0.0000 </r>
       <r>    5.2733    0.0000 </r>
      </set>
      <set comment="kpoint 231">
       <r>  -17.5978    1.0000 </r>
       <r>  -16.9027    1.0000 </r>
       <r>  -15.7992    1.0000 </r>
       <r>  -15.1182    1.0000 </r>
       <r>   -9.6570    1.0000 </r>
       <r>   -9.3362    1.0000 </r>
       <r>   -5.3958    1.0000 </r>
       <r>   -4.9627    1.0000 </r>
       <r>   -1.1228    0.0000 </r>
       <r>   -0.6493    0.0000 </r>
       <r>    4.5979    0.0000 </r>
       <r>    4.9203    0.0000 </r>
      </set>
      <set comment="kpoint 232">
       <r>  -17.4398    1.0000 </r>
       <r>  -16.9040    1.0000 </r>
       <r>  -15.8816    1.0000 </r>
       <r>  -15.3551    1.0000 </r>
       <r>   -9.4593    1.0000 </r>
       <r>   -9.2391    1.0000 </r>
       <r>   -5.3044    1.0000 </r>
       <r>   -5.0058    1.0000 </r>
       <r>   -1.1230    0.0000 </r>
       <r>   -0.7977    0.0000 </r>
       <r>    4.4209    0.0000 </r>
       <r>    4.6427    0.0000 </r>
      </set>
      <set comment="kpoint 233">
       <r>  -17.2759    1.0000 </r>
       <r>  -16.9822    1.0000 </r>
       <r>  -15.8548    1.0000 </r>
       <r>  -15.5656    1.0000 </r>
       <r>   -9.3139    1.0000 </r>
       <r>   -9.2018    1.0000 </r>
       <r>   -5.2161    1.0000 </r>
       <r>   -5.0637    1.0000 </r>
       <r>   -1.0895    0.0000 </r>
       <r>   -0.9237    0.0000 </r>
       <r>    4.3358    0.0000 </r>
       <r>    4.4489    0.0000 </r>
      </set>
      <set comment="kpoint 234">
       <r>  -17.1167    1.0000 </r>
       <r>  -17.1167    1.0000 </r>
       <r>  -15.7390    1.0000 </r>
       <r>  -15.7390    1.0000 </r>
       <r>   -9.2269    1.0000 </r>
       <r>   -9.2269    1.0000 </r>
       <r>   -5.1347    1.0000 </r>
       <r>   -5.1347    1.0000 </r>
       <r>   -1.0223    0.0000 </r>
       <r>   -1.0223    0.0000 </r>
       <r>    4.3453    0.0000 </r>
       <r>    4.3453    0.0000 </r>
      </set>
      <set comment="kpoint 235">
       <r>  -17.8832    1.0000 </r>
       <r>  -17.8832    1.0000 </r>
       <r>  -13.3361    1.0000 </r>
       <r>  -13.3361    1.0000 </r>
       <r>  -11.6501    1.0000 </r>
       <r>  -11.6501    1.0000 </r>
       <r>   -5.4307    1.0000 </r>
       <r>   -5.4307    1.0000 </r>
       <r>   -0.0329    0.0000 </r>
       <r>   -0.0329    0.0000 </r>
       <r>    6.5136    0.0000 </r>
       <r>    6.5136    0.0000 </r>
      </set>
      <set comment="kpoint 236">
       <r>  -17.8741    1.0000 </r>
       <r>  -17.8741    1.0000 </r>
       <r>  -13.4128    1.0000 </r>
       <r>  -13.4128    1.0000 </r>
       <r>  -11.5708    1.0000 </r>
       <r>  -11.5708    1.0000 </r>
       <r>   -5.4255    1.0000 </r>
       <r>   -5.4255    1.0000 </r>
       <r>   -0.0523    0.0000 </r>
       <r>   -0.0523    0.0000 </r>
       <r>    6.5268    0.0000 </r>
       <r>    6.5268    0.0000 </r>
      </set>
      <set comment="kpoint 237">
       <r>  -17.8469    1.0000 </r>
       <r>  -17.8469    1.0000 </r>
       <r>  -13.6089    1.0000 </r>
       <r>  -13.6089    1.0000 </r>
       <r>  -11.3673    1.0000 </r>
       <r>  -11.3673    1.0000 </r>
       <r>   -5.4098    1.0000 </r>
       <r>   -5.4098    1.0000 </r>
       <r>   -0.1088    0.0000 </r>
       <r>   -0.1088    0.0000 </r>
       <r>    6.5660    0.0000 </r>
       <r>    6.5660    0.0000 </r>
      </set>
      <set comment="kpoint 238">
       <r>  -17.8018    1.0000 </r>
       <r>  -17.8018    1.0000 </r>
       <r>  -13.8684    1.0000 </r>
       <r>  -13.8684    1.0000 </r>
       <r>  -11.0972    1.0000 </r>
       <r>  -11.0972    1.0000 </r>
       <r>   -5.3845    1.0000 </r>
       <r>   -5.3845    1.0000 </r>
       <r>   -0.1977    0.0000 </r>
       <r>   -0.1977    0.0000 </r>
       <r>    6.6299    0.0000 </r>
       <r>    6.6299    0.0000 </r>
      </set>
      <set comment="kpoint 239">
       <r>  -17.7392    1.0000 </r>
       <r>  -17.7392    1.0000 </r>
       <r>  -14.1548    1.0000 </r>
       <r>  -14.1548    1.0000 </r>
       <r>  -10.7994    1.0000 </r>
       <r>  -10.7994    1.0000 </r>
       <r>   -5.3506    1.0000 </r>
       <r>   -5.3506    1.0000 </r>
       <r>   -0.3118    0.0000 </r>
       <r>   -0.3118    0.0000 </r>
       <r>    6.6996    0.0000 </r>
       <r>    6.6997    0.0000 </r>
      </set>
      <set comment="kpoint 240">
       <r>  -17.6597    1.0000 </r>
       <r>  -17.6597    1.0000 </r>
       <r>  -14.4487    1.0000 </r>
       <r>  -14.4487    1.0000 </r>
       <r>  -10.4965    1.0000 </r>
       <r>  -10.4965    1.0000 </r>
       <r>   -5.3100    1.0000 </r>
       <r>   -5.3100    1.0000 </r>
       <r>   -0.4425    0.0000 </r>
       <r>   -0.4425    0.0000 </r>
       <r>    6.3637    0.0000 </r>
       <r>    6.3637    0.0000 </r>
      </set>
      <set comment="kpoint 241">
       <r>  -17.5643    1.0000 </r>
       <r>  -17.5643    1.0000 </r>
       <r>  -14.7394    1.0000 </r>
       <r>  -14.7394    1.0000 </r>
       <r>  -10.2036    1.0000 </r>
       <r>  -10.2036    1.0000 </r>
       <r>   -5.2648    1.0000 </r>
       <r>   -5.2648    1.0000 </r>
       <r>   -0.5808    0.0000 </r>
       <r>   -0.5808    0.0000 </r>
       <r>    5.8726    0.0000 </r>
       <r>    5.8726    0.0000 </r>
      </set>
      <set comment="kpoint 242">
       <r>  -17.4548    1.0000 </r>
       <r>  -17.4548    1.0000 </r>
       <r>  -15.0197    1.0000 </r>
       <r>  -15.0197    1.0000 </r>
       <r>   -9.9321    1.0000 </r>
       <r>   -9.9321    1.0000 </r>
       <r>   -5.2178    1.0000 </r>
       <r>   -5.2178    1.0000 </r>
       <r>   -0.7175    0.0000 </r>
       <r>   -0.7175    0.0000 </r>
       <r>    5.4283    0.0000 </r>
       <r>    5.4283    0.0000 </r>
      </set>
      <set comment="kpoint 243">
       <r>  -17.3339    1.0000 </r>
       <r>  -17.3339    1.0000 </r>
       <r>  -15.2833    1.0000 </r>
       <r>  -15.2833    1.0000 </r>
       <r>   -9.6923    1.0000 </r>
       <r>   -9.6923    1.0000 </r>
       <r>   -5.1722    1.0000 </r>
       <r>   -5.1722    1.0000 </r>
       <r>   -0.8438    0.0000 </r>
       <r>   -0.8438    0.0000 </r>
       <r>    5.0459    0.0000 </r>
       <r>    5.0459    0.0000 </r>
      </set>
      <set comment="kpoint 244">
       <r>  -17.2072    1.0000 </r>
       <r>  -17.2072    1.0000 </r>
       <r>  -15.5227    1.0000 </r>
       <r>  -15.5227    1.0000 </r>
       <r>   -9.4938    1.0000 </r>
       <r>   -9.4938    1.0000 </r>
       <r>   -5.1315    1.0000 </r>
       <r>   -5.1315    1.0000 </r>
       <r>   -0.9519    0.0000 </r>
       <r>   -0.9519    0.0000 </r>
       <r>    4.7357    0.0000 </r>
       <r>    4.7357    0.0000 </r>
      </set>
      <set comment="kpoint 245">
       <r>  -17.0853    1.0000 </r>
       <r>  -17.0853    1.0000 </r>
       <r>  -15.7260    1.0000 </r>
       <r>  -15.7260    1.0000 </r>
       <r>   -9.3449    1.0000 </r>
       <r>   -9.3449    1.0000 </r>
       <r>   -5.0992    1.0000 </r>
       <r>   -5.0992    1.0000 </r>
       <r>   -1.0346    0.0000 </r>
       <r>   -1.0346    0.0000 </r>
       <r>    4.5066    0.0000 </r>
       <r>    4.5066    0.0000 </r>
      </set>
      <set comment="kpoint 246">
       <r>  -16.9889    1.0000 </r>
       <r>  -16.9889    1.0000 </r>
       <r>  -15.8716    1.0000 </r>
       <r>  -15.8716    1.0000 </r>
       <r>   -9.2526    1.0000 </r>
       <r>   -9.2526    1.0000 </r>
       <r>   -5.0784    1.0000 </r>
       <r>   -5.0784    1.0000 </r>
       <r>   -1.0866    0.0000 </r>
       <r>   -1.0866    0.0000 </r>
       <r>    4.3660    0.0000 </r>
       <r>    4.3660    0.0000 </r>
      </set>
      <set comment="kpoint 247">
       <r>  -16.9503    1.0000 </r>
       <r>  -16.9503    1.0000 </r>
       <r>  -15.9266    1.0000 </r>
       <r>  -15.9266    1.0000 </r>
       <r>   -9.2213    1.0000 </r>
       <r>   -9.2213    1.0000 </r>
       <r>   -5.0712    1.0000 </r>
       <r>   -5.0712    1.0000 </r>
       <r>   -1.1044    0.0000 </r>
       <r>   -1.1044    0.0000 </r>
       <r>    4.3186    0.0000 </r>
       <r>    4.3186    0.0000 </r>
      </set>
     </set>
    </set>
   </array>
  </eigenvalues>
  <separator name="orbital magnetization" >
   <v name="MAGDIPOLOUT">      0.00000000      0.00000000      0.00000000</v>
  </separator>
 </calculation>
 <structure name="finalpos" >
  <crystal>
   <varray name="basis" >
    <v>       4.31577805       0.00000000       0.00000000 </v>
    <v>       0.00000000       2.46287704       0.00000000 </v>
    <v>       0.00000000       0.00000000      19.83566907 </v>
   </varray>
   <i name="volume">    210.83790140 </i>
   <varray name="rec_basis" >
    <v>       0.23170793       0.00000000       0.00000000 </v>
    <v>       0.00000000       0.40602920       0.00000000 </v>
    <v>       0.00000000       0.00000000       0.05041423 </v>
   </varray>
  </crystal>
  <varray name="positions" >
   <v>       0.99975760       0.00000000      -0.00000000 </v>
   <v>       0.16690907       0.50000000       0.00000000 </v>
   <v>       0.49975760       0.50000000      -0.00000000 </v>
   <v>       0.66690907       0.00000000       0.00000000 </v>
  </varray>
 </structure>
</modeling>
