gr                                      
           1
     4.315778    0.000000    0.000000
     0.000000    2.462877    0.000000
     0.000000    0.000000   19.835669
   C 
   4
Direct configuration=     1
   0.99975412  0.00000000  0.00000000
   0.16691255  0.50000000  0.00000000
   0.49975412  0.50000000  0.00000000
   0.66691255  0.00000000  0.00000000
Direct configuration=     2
   0.99977140  0.00000000  0.00000000
   0.16689527  0.50000000  0.00000000
   0.49977140  0.50000000  0.00000000
   0.66689527  0.00000000  0.00000000
Direct configuration=     3
   0.99975760  0.00000000 -0.00000000
   0.16690906  0.50000000  0.00000000
   0.49975760  0.50000000 -0.00000000
   0.66690906  0.00000000  0.00000000
Direct configuration=     4
   0.99975760  0.00000000 -0.00000000
   0.16690907  0.50000000  0.00000000
   0.49975760  0.50000000 -0.00000000
   0.66690907  0.00000000  0.00000000
