    4    4  400    1
  0.5270948E+02  0.4294623E-09  0.2464966E-09  0.1991649E-08  0.5000000E-15
  1.000000000000000E-004
  CAR 
 gr                                      
     16    247     12
 
  0.0000000E+00  0.0000000E+00  0.0000000E+00  0.1157407E-02
    1      -22.219135
    2      -17.070484
    3      -15.946357
    4      -10.332283
    5       -9.085473
    6       -5.831740
    7       -5.773735
    8       -5.157253
    9       -1.098525
   10        0.527963
   11        1.328484
   12        1.713465
 
  0.4166667E-01  0.0000000E+00  0.0000000E+00  0.2314815E-02
    1      -22.208987
    2      -17.224210
    3      -15.777423
    4      -10.320175
    5       -9.075438
    6       -5.874820
    7       -5.795789
    8       -5.222121
    9       -1.017713
   10        0.541721
   11        1.342427
   12        1.727577
 
  0.8333333E-01  0.0000000E+00  0.0000000E+00  0.2314815E-02
    1      -22.178545
    2      -17.547728
    3      -15.408360
    4      -10.283868
    5       -9.045383
    6       -6.002225
    7       -5.860745
    8       -5.402437
    9       -0.789733
   10        0.582997
   11        1.384251
   12        1.769915
 
  0.1250000E+00  0.0000000E+00  0.0000000E+00  0.2314815E-02
    1      -22.127831
    2      -17.915019
    3      -14.965443
    4      -10.223422
    5       -8.995461
    6       -6.208783
    7       -5.965187
    8       -5.666196
    9       -0.447096
   10        0.651802
   11        1.453944
   12        1.840479
 
  0.1666667E+00  0.0000000E+00  0.0000000E+00  0.2314815E-02
    1      -22.056877
    2      -18.287427
    3      -14.487758
    4      -10.138933
    5       -8.925935
    6       -6.486805
    7       -6.104020
    8       -5.981334
    9       -0.022723
   10        0.748141
   11        1.551482
   12        1.939272
 
  0.2083333E+00  0.0000000E+00  0.0000000E+00  0.2314815E-02
    1      -21.965734
    2      -18.652474
    3      -13.988406
    4      -10.030542
    5       -8.837181
    6       -6.827155
    7       -6.323729
    8       -6.271152
    9        0.458034
   10        0.872019
   11        1.676830
   12        2.066295
 
  0.2500000E+00  0.0000000E+00  0.0000000E+00  0.2314815E-02
    1      -21.854464
    2      -19.005068
    3      -13.473299
    4       -9.898439
    5       -8.729706
    6       -7.220218
    7       -6.677168
    8       -6.460142
    9        0.977310
   10        1.023424
   11        1.829935
   12        2.221547
 
  0.2916667E+00  0.0000000E+00  0.0000000E+00  0.2314815E-02
    1      -21.723149
    2      -19.342697
    3      -12.946001
    4       -9.742869
    5       -8.604159
    6       -7.656647
    7       -7.031062
    8       -6.664709
    9        1.202336
   10        1.522363
   11        2.010714
   12        2.405027
 
  0.3333333E+00  0.0000000E+00  0.0000000E+00  0.2314815E-02
    1      -21.571885
    2      -19.663925
    3      -12.409257
    4       -9.564144
    5       -8.461357
    6       -8.127809
    7       -7.378435
    8       -6.879058
    9        1.408718
   10        2.083311
   11        2.219033
   12        2.616728
 
  0.3750000E+00  0.0000000E+00  0.0000000E+00  0.2314815E-02
    1      -21.400789
    2      -19.967834
    3      -11.865587
    4       -9.362654
    5       -8.626006
    6       -8.302306
    7       -7.714573
    8       -7.098036
    9        1.642519
   10        2.454654
   11        2.650833
   12        2.856644
 
  0.4166667E+00  0.0000000E+00  0.0000000E+00  0.2314815E-02
    1      -21.209999
    2      -20.253786
    3      -11.317573
    4       -9.144518
    5       -9.138889
    6       -8.128244
    7       -8.036202
    8       -7.317185
    9        1.903670
   10        2.717079
   11        3.124761
   12        3.210377
 
  0.4583333E+00  0.0000000E+00  0.0000000E+00  0.2314815E-02
    1      -20.999682
    2      -20.521309
    3      -10.768030
    4       -9.677550
    5       -8.893466
    6       -8.340974
    7       -7.940677
    8       -7.532712
    9        2.192075
   10        2.850058
   11        3.004982
   12        3.421521
 
  0.5000000E+00  0.0000000E+00  0.0000000E+00  0.1157407E-02
    1      -20.770039
    2      -20.770039
    3      -10.220137
    4      -10.220137
    5       -8.627161
    6       -8.627161
    7       -7.741430
    8       -7.741430
    9        2.507604
   10        2.507604
   11        3.312843
   12        3.312843
 
  0.0000000E+00  0.2777778E-01  0.0000000E+00  0.2314815E-02
    1      -22.205435
    2      -17.058701
    3      -15.934725
    4      -10.315937
    5       -9.147420
    6       -5.861078
    7       -5.831017
    8       -5.140609
    9       -1.102147
   10        0.546543
   11        1.347297
   12        1.732507
 
  0.4166667E-01  0.2777778E-01  0.0000000E+00  0.4629630E-02
    1      -22.195287
    2      -17.212269
    3      -15.765999
    4      -10.303833
    5       -9.137369
    6       -5.911899
    7       -5.844669
    8       -5.205616
    9       -1.021311
   10        0.560301
   11        1.361239
   12        1.746619
 
  0.8333333E-01  0.2777778E-01  0.0000000E+00  0.4629630E-02
    1      -22.164850
    2      -17.535535
    3      -15.397340
    4      -10.267539
    5       -9.107266
    6       -6.043698
    7       -5.903369
    8       -5.386251
    9       -0.793356
   10        0.601580
   11        1.403060
   12        1.788957
 
  0.1250000E+00  0.2777778E-01  0.0000000E+00  0.4629630E-02
    1      -22.114143
    2      -17.902600
    3      -14.954906
    4      -10.207114
    5       -9.057262
    6       -6.249128
    7       -6.006187
    8       -5.650342
    9       -0.450965
   10        0.670387
   11        1.472748
   12        1.859522
 
  0.1666667E+00  0.2777778E-01  0.0000000E+00  0.4629630E-02
    1      -22.043200
    2      -18.274816
    3      -14.477785
    4      -10.122653
    5       -8.987611
    6       -6.523075
    7       -6.145837
    8       -5.965727
    9       -0.027154
   10        0.766731
   11        1.570281
   12        1.958316
 
  0.2083333E+00  0.2777778E-01  0.0000000E+00  0.4629630E-02
    1      -21.952072
    2      -18.639698
    3      -13.979098
    4      -10.014299
    5       -8.898683
    6       -6.858052
    7       -6.314930
    8       -6.308269
    9        0.452703
   10        0.890616
   11        1.695623
   12        2.085340
 
  0.2500000E+00  0.2777778E-01  0.0000000E+00  0.4629630E-02
    1      -21.840820
    2      -18.992151
    3      -13.464776
    4       -9.882242
    5       -8.790973
    6       -7.245413
    7       -6.661768
    8       -6.506324
    9        0.970768
   10        1.042030
   11        1.848721
   12        2.240595
 
  0.2916667E+00  0.2777778E-01  0.0000000E+00  0.4629630E-02
    1      -21.709526
    2      -19.329659
    3      -12.938410
    4       -9.726725
    5       -8.665118
    6       -7.676353
    7       -7.015661
    8       -6.713354
    9        1.220952
   10        1.514341
   11        2.029493
   12        2.424077
 
  0.3333333E+00  0.2777778E-01  0.0000000E+00  0.4629630E-02
    1      -21.558289
    2      -19.650783
    3      -12.402776
    4       -9.548062
    5       -8.521913
    6       -8.142518
    7       -7.362992
    8       -6.930016
    9        1.427346
   10        2.073617
   11        2.237807
   12        2.635782
 
  0.3750000E+00  0.2777778E-01  0.0000000E+00  0.4629630E-02
    1      -21.387224
    2      -19.954603
    3      -11.860431
    4       -9.346641
    5       -8.636316
    6       -8.362349
    7       -7.699063
    8       -7.151061
    9        1.661162
   10        2.473428
   11        2.639485
   12        2.875703
 
  0.4166667E+00  0.2777778E-01  0.0000000E+00  0.4629630E-02
    1      -21.196471
    2      -20.240477
    3      -11.314002
    4       -9.151040
    5       -9.122953
    6       -8.187636
    7       -8.020611
    8       -7.371995
    9        1.922328
   10        2.735865
   11        3.143826
   12        3.196976
 
  0.4583333E+00  0.2777778E-01  0.0000000E+00  0.4629630E-02
    1      -20.986197
    2      -20.507932
    3      -10.766357
    4       -9.680855
    5       -8.877611
    6       -8.325295
    7       -7.999250
    8       -7.589027
    9        2.210753
   10        2.868808
   11        3.023798
   12        3.440133
 
  0.5000000E+00  0.2777778E-01  0.0000000E+00  0.2314815E-02
    1      -20.756604
    2      -20.756604
    3      -10.220734
    4      -10.220734
    5       -8.611393
    6       -8.611393
    7       -7.798989
    8       -7.798989
    9        2.526309
   10        2.526309
   11        3.331595
   12        3.331595
 
  0.0000000E+00  0.5555556E-01  0.0000000E+00  0.2314815E-02
    1      -22.164344
    2      -17.023357
    3      -15.899979
    4      -10.266935
    5       -9.328292
    6       -5.998274
    7       -5.948433
    8       -5.090695
    9       -1.113838
   10        0.602287
   11        1.403726
   12        1.789632
 
  0.4166667E-01  0.5555556E-01  0.0000000E+00  0.4629630E-02
    1      -22.154200
    2      -17.176460
    3      -15.731870
    4      -10.254843
    5       -9.318189
    6       -6.051905
    7       -5.957342
    8       -5.156131
    9       -1.032924
   10        0.616046
   11        1.417666
   12        1.803745
 
  0.8333333E-01  0.5555556E-01  0.0000000E+00  0.4629630E-02
    1      -22.123776
    2      -17.498974
    3      -15.364428
    4      -10.218587
    5       -9.287928
    6       -6.184160
    7       -6.010117
    8       -5.337752
    9       -0.805039
   10        0.657327
   11        1.459479
   12        1.846083
 
  0.1250000E+00  0.5555556E-01  0.0000000E+00  0.4629630E-02
    1      -22.073091
    2      -17.865364
    3      -14.923462
    4      -10.158224
    5       -9.237647
    6       -6.382327
    7       -6.112067
    8       -5.602859
    9       -0.463393
   10        0.726140
   11        1.529155
   12        1.916649
 
  0.1666667E+00  0.5555556E-01  0.0000000E+00  0.4629630E-02
    1      -22.002182
    2      -18.237002
    3      -14.448067
    4      -10.073852
    5       -9.167585
    6       -6.642456
    7       -6.255865
    8       -5.919000
    9       -0.041302
   10        0.822495
   11        1.626670
   12        2.015446
 
  0.2083333E+00  0.5555556E-01  0.0000000E+00  0.4629630E-02
    1      -21.911096
    2      -18.601390
    3      -13.951416
    4       -9.965611
    5       -9.078083
    6       -6.959887
    7       -6.432343
    8       -6.261983
    9        0.435810
   10        0.946395
   11        1.751990
   12        2.142474
 
  0.2500000E+00  0.5555556E-01  0.0000000E+00  0.4629630E-02
    1      -21.799898
    2      -18.953420
    3      -13.439512
    4       -9.833691
    5       -8.969599
    6       -7.328585
    7       -6.632539
    8       -6.615663
    9        0.950173
   10        1.097831
   11        1.905065
   12        2.297734
 
  0.2916667E+00  0.5555556E-01  0.0000000E+00  0.4629630E-02
    1      -21.668672
    2      -19.290564
    3      -12.916027
    4       -9.678338
    5       -8.842723
    6       -7.741531
    7       -6.969548
    8       -6.848482
    9        1.276780
   10        1.489213
   11        2.085814
   12        2.481224
 
  0.3333333E+00  0.5555556E-01  0.0000000E+00  0.4629630E-02
    1      -21.517514
    2      -19.611374
    3      -12.383836
    4       -9.499861
    5       -8.698195
    6       -8.191348
    7       -7.316748
    8       -7.073417
    9        1.483204
   10        2.043343
   11        2.294111
   12        2.692939
 
  0.3750000E+00  0.5555556E-01  0.0000000E+00  0.4629630E-02
    1      -21.346543
    2      -19.914922
    3      -11.845622
    4       -9.298652
    5       -8.670834
    6       -8.536929
    7       -7.652613
    8       -7.301746
    9        1.717053
   10        2.529734
   11        2.604007
   12        2.932873
 
  0.4166667E+00  0.5555556E-01  0.0000000E+00  0.4629630E-02
    1      -21.155900
    2      -20.200563
    3      -11.304157
    4       -9.173314
    5       -9.075196
    6       -8.360051
    7       -7.973911
    8       -7.528882
    9        1.978258
   10        2.792209
   11        3.159118
   12        3.201013
 
  0.4583333E+00  0.5555556E-01  0.0000000E+00  0.4629630E-02
    1      -20.945755
    2      -20.467816
    3      -10.762485
    4       -9.692804
    5       -8.830105
    6       -8.278326
    7       -8.168934
    8       -7.751074
    9        2.266730
   10        2.924949
   11        3.080237
   12        3.497344
 
  0.5000000E+00  0.5555556E-01  0.0000000E+00  0.2314815E-02
    1      -20.716313
    2      -20.716313
    3      -10.224050
    4      -10.224050
    5       -8.564152
    6       -8.564152
    7       -7.965259
    8       -7.965259
    9        2.582350
   10        2.582350
   11        3.387809
   12        3.387809
 
  0.0000000E+00  0.8333333E-01  0.0000000E+00  0.2314815E-02
    1      -22.095896
    2      -16.964462
    3      -15.842595
    4      -10.185378
    5       -9.614560
    6       -6.263126
    7       -6.091867
    8       -5.007575
    9       -1.136080
   10        0.695204
   11        1.497752
   12        1.884843
 
  0.4166667E-01  0.8333333E-01  0.0000000E+00  0.4629630E-02
    1      -22.085760
    2      -17.116822
    3      -15.675498
    4      -10.173308
    5       -9.604355
    6       -6.310092
    7       -6.104355
    8       -5.073768
    9       -1.055013
   10        0.708962
   11        1.511686
   12        1.898956
 
  0.8333333E-01  0.8333333E-01  0.0000000E+00  0.4629630E-02
    1      -22.055358
    2      -17.438108
    3      -15.310101
    4      -10.137117
    5       -9.573778
    6       -6.436433
    7       -6.154289
    8       -5.257120
    9       -0.827214
   10        0.750242
   11        1.553485
   12        1.941295
 
  0.1250000E+00  0.8333333E-01  0.0000000E+00  0.4629630E-02
    1      -22.004713
    2      -17.803379
    3      -14.871649
    4      -10.076861
    5       -9.522947
    6       -6.624562
    7       -6.253176
    8       -5.524000
    9       -0.486831
   10        0.819056
   11        1.623137
   12        2.011862
 
  0.1666667E+00  0.8333333E-01  0.0000000E+00  0.4629630E-02
    1      -21.933858
    2      -18.174052
    3      -14.399246
    4       -9.992639
    5       -9.452065
    6       -6.865918
    7       -6.400020
    8       -5.841442
    9       -0.067701
   10        0.915417
   11        1.720619
   12        2.110661
 
  0.2083333E+00  0.8333333E-01  0.0000000E+00  0.4629630E-02
    1      -21.842844
    2      -18.537612
    3      -13.906159
    4       -9.884592
    5       -9.361418
    6       -7.156257
    7       -6.586911
    8       -6.185173
    9        0.404675
   10        1.039330
   11        1.845900
   12        2.237693
 
  0.2500000E+00  0.8333333E-01  0.0000000E+00  0.4629630E-02
    1      -21.731737
    2      -18.888931
    3      -13.398516
    4       -9.752910
    5       -9.251392
    6       -7.492780
    7       -6.802953
    8       -6.539148
    9        0.912649
   10        1.190787
   11        1.998929
   12        2.392960
 
  0.2916667E+00  0.8333333E-01  0.0000000E+00  0.4629630E-02
    1      -21.600622
    2      -19.225464
    3      -12.880151
    4       -9.597836
    5       -9.122480
    6       -7.872395
    7       -7.037095
    8       -6.893006
    9        1.369764
   10        1.443855
   11        2.179633
   12        2.576459
 
  0.3333333E+00  0.8333333E-01  0.0000000E+00  0.4629630E-02
    1      -21.449596
    2      -19.545746
    3      -12.354136
    4       -9.419682
    5       -8.975294
    6       -8.290772
    7       -7.279941
    8       -7.239968
    9        1.576222
   10        1.989023
   11        2.387896
   12        2.788187
 
  0.3750000E+00  0.8333333E-01  0.0000000E+00  0.4629630E-02
    1      -21.278783
    2      -19.848839
    3      -11.823400
    4       -9.218835
    5       -8.810593
    6       -8.742373
    7       -7.575466
    8       -7.524346
    9        1.810108
   10        2.540307
   11        2.623513
   12        3.028136
 
  0.4166667E+00  0.8333333E-01  0.0000000E+00  0.4629630E-02
    1      -21.088325
    2      -20.134088
    3      -11.291021
    4       -9.221043
    5       -8.995779
    6       -8.629300
    7       -7.896326
    8       -7.765126
    9        2.071352
   10        2.886053
   11        3.088715
   12        3.296297
 
  0.4583333E+00  0.8333333E-01  0.0000000E+00  0.4629630E-02
    1      -20.878396
    2      -20.401001
    3      -10.760413
    4       -9.720644
    5       -8.751122
    6       -8.432545
    7       -8.200273
    8       -7.998518
    9        2.359869
   10        3.018234
   11        3.174267
   12        3.592632
 
  0.5000000E+00  0.8333333E-01  0.0000000E+00  0.2314815E-02
    1      -20.649205
    2      -20.649205
    3      -10.235466
    4      -10.235466
    5       -8.485628
    6       -8.485628
    7       -8.221712
    8       -8.221712
    9        2.675546
   10        2.675546
   11        3.481306
   12        3.481306
 
  0.0000000E+00  0.1111111E+00  0.0000000E+00  0.2314815E-02
    1      -22.000154
    2      -16.882038
    3      -15.763469
    4      -10.071442
    5       -9.987384
    6       -6.608672
    7       -6.288238
    8       -4.891352
    9       -1.172981
   10        0.825303
   11        1.629334
   12        2.018144
 
  0.4166667E-01  0.1111111E+00  0.0000000E+00  0.4629630E-02
    1      -21.990029
    2      -17.033426
    3      -15.597754
    4      -10.059403
    5       -9.976996
    6       -6.654854
    7       -6.297475
    8       -4.958708
    9       -1.091638
   10        0.839058
   11        1.643261
   12        2.032256
 
  0.8333333E-01  0.1111111E+00  0.0000000E+00  0.4629630E-02
    1      -21.959659
    2      -17.353050
    3      -15.235267
    4      -10.023305
    5       -9.945860
    6       -6.780164
    7       -6.336920
    8       -5.144690
    9       -0.863870
   10        0.880327
   11        1.685036
   12        2.074593
 
  0.1250000E+00  0.1111111E+00  0.0000000E+00  0.4629630E-02
    1      -21.909067
    2      -17.716766
    3      -14.800511
    4       -9.963207
    5       -9.894055
    6       -6.964024
    7       -6.422657
    8       -5.414220
    9       -0.525280
   10        0.949129
   11        1.754649
   12        2.145159
 
  0.1666667E+00  0.1111111E+00  0.0000000E+00  0.4629630E-02
    1      -21.838289
    2      -18.086082
    3      -14.332586
    4       -9.879205
    5       -9.821714
    6       -7.193230
    7       -6.560473
    8       -5.733574
    9       -0.110469
   10        1.045479
   11        1.852077
   12        2.243958
 
  0.2083333E+00  0.1111111E+00  0.0000000E+00  0.4629630E-02
    1      -21.747377
    2      -18.448472
    3      -13.844911
    4       -9.771442
    5       -9.729025
    6       -7.460686
    7       -6.747478
    8       -6.078378
    9        0.354970
   10        1.169387
   11        1.977290
   12        2.370992
 
  0.2500000E+00  0.1111111E+00  0.0000000E+00  0.4629630E-02
    1      -21.636399
    2      -18.798784
    3      -13.343831
    4       -9.640106
    5       -9.616229
    6       -7.763223
    7       -6.974942
    8       -6.432751
    9        0.853588
   10        1.320848
   11        2.130241
   12        2.526264
 
  0.2916667E+00  0.1111111E+00  0.0000000E+00  0.4629630E-02
    1      -21.505438
    2      -19.134449
    3      -12.833463
    4       -9.485443
    5       -9.483625
    6       -8.100228
    7       -7.230558
    8       -6.786536
    9        1.373316
   10        1.499838
   11        2.310863
   12        2.709771
 
  0.3333333E+00  0.1111111E+00  0.0000000E+00  0.4629630E-02
    1      -21.354600
    2      -19.453985
    3      -12.317247
    4       -9.331567
    5       -9.307762
    6       -8.472052
    7       -7.500919
    8       -7.133118
    9        1.706315
   10        1.905272
   11        2.519055
   12        2.921509
 
  0.3750000E+00  0.1111111E+00  0.0000000E+00  0.4629630E-02
    1      -21.184007
    2      -19.756434
    3      -11.798582
    4       -9.160468
    5       -9.107448
    6       -8.878179
    7       -7.774089
    8       -7.468053
    9        1.940221
   10        2.442296
   11        2.754644
   12        3.161473
 
  0.4166667E+00  0.1111111E+00  0.0000000E+00  0.4629630E-02
    1      -20.993809
    2      -20.041127
    3      -11.281146
    4       -9.316006
    5       -8.970806
    6       -8.884983
    7       -8.041285
    8       -7.788253
    9        2.201485
   10        2.977634
   11        3.017270
   12        3.429653
 
  0.4583333E+00  0.1111111E+00  0.0000000E+00  0.4629630E-02
    1      -20.784187
    2      -20.307562
    3      -10.769104
    4       -9.780921
    5       -8.763147
    6       -8.640965
    7       -8.297019
    8       -8.091499
    9        2.490017
   10        3.148421
   11        3.305812
   12        3.498412
 
  0.5000000E+00  0.1111111E+00  0.0000000E+00  0.2314815E-02
    1      -20.555351
    2      -20.555351
    3      -10.267229
    4      -10.267229
    5       -8.538208
    6       -8.538208
    7       -8.376150
    8       -8.376150
    9        2.805709
   10        2.805709
   11        3.611257
   12        3.611257
 
  0.0000000E+00  0.1388889E+00  0.0000000E+00  0.2314815E-02
    1      -21.877205
    2      -16.776112
    3      -15.664121
    4      -10.425977
    5       -9.925376
    6       -7.016920
    7       -6.533361
    8       -4.742174
    9       -1.230173
   10        0.992588
   11        1.798418
   12        2.189536
 
  0.4166667E-01  0.1388889E+00  0.0000000E+00  0.4629630E-02
    1      -21.867093
    2      -16.926382
    3      -15.500126
    4      -10.415278
    5       -9.913380
    6       -7.063977
    7       -6.536980
    8       -4.811229
    9       -1.148333
   10        1.006334
   11        1.812332
   12        2.203647
 
  0.8333333E-01  0.1388889E+00  0.0000000E+00  0.4629630E-02
    1      -21.836765
    2      -17.243976
    3      -15.141502
    4      -10.383185
    5       -9.877411
    6       -7.191441
    7       -6.560638
    8       -5.000996
    9       -0.920384
   10        1.047581
   11        1.854070
   12        2.245980
 
  0.1250000E+00  0.1388889E+00  0.0000000E+00  0.4629630E-02
    1      -21.786243
    2      -17.605711
    3      -14.711884
    4      -10.329703
    5       -9.817526
    6       -7.376005
    7       -6.624802
    8       -5.274256
    9       -0.584073
   10        1.116347
   11        1.923619
   12        2.316541
 
  0.1666667E+00  0.1388889E+00  0.0000000E+00  0.4629630E-02
    1      -21.715566
    2      -17.973270
    3      -14.250364
    4      -10.254835
    5       -9.733824
    6       -7.601005
    7       -6.741046
    8       -5.596226
    9       -0.175050
   10        1.212659
   11        2.020960
   12        2.415335
 
  0.2083333E+00  0.1388889E+00  0.0000000E+00  0.4629630E-02
    1      -21.624785
    2      -18.334133
    3      -13.770603
    4      -10.158568
    5       -9.626448
    6       -7.856432
    7       -6.911890
    8       -5.942446
    9        0.281028
   10        1.336530
   11        2.146060
   12        2.542366
 
  0.2500000E+00  0.1388889E+00  0.0000000E+00  0.4629630E-02
    1      -21.513971
    2      -18.683129
    3      -13.279329
    4      -10.040856
    5       -9.495586
    6       -8.136675
    7       -7.133255
    8       -6.297294
    9        0.767036
   10        1.487963
   11        2.298875
   12        2.697637
 
  0.2916667E+00  0.1388889E+00  0.0000000E+00  0.4629630E-02
    1      -21.383212
    2      -19.017659
    3      -12.781186
    4       -9.901586
    5       -9.341485
    6       -8.439430
    7       -7.396149
    8       -6.650908
    9        1.271328
   10        1.666934
   11        2.479346
   12        2.881147
 
  0.3333333E+00  0.1388889E+00  0.0000000E+00  0.4629630E-02
    1      -21.232615
    2      -19.336218
    3      -12.280327
    4       -9.740546
    5       -9.164452
    6       -8.765187
    7       -7.688015
    8       -6.996910
    9        1.785488
   10        1.873399
   11        2.687387
   12        3.092893
 
  0.3750000E+00  0.1388889E+00  0.0000000E+00  0.4629630E-02
    1      -21.062309
    2      -19.637825
    3      -11.781086
    4       -9.557386
    5       -9.116494
    6       -8.964870
    7       -7.994280
    8       -7.331027
    9        2.107295
   10        2.302977
   11        2.922869
   12        3.332868
 
  0.4166667E+00  0.1388889E+00  0.0000000E+00  0.4629630E-02
    1      -20.872450
    2      -19.921792
    3      -11.288333
    4       -9.496434
    5       -9.351600
    6       -8.743217
    7       -8.300517
    8       -7.650285
    9        2.368542
   10        2.818291
   11        3.185553
   12        3.601063
 
  0.4583333E+00  0.1388889E+00  0.0000000E+00  0.4629630E-02
    1      -20.663225
    2      -20.187602
    3      -10.807622
    4       -9.906481
    5       -9.122613
    6       -8.594956
    7       -8.500084
    8       -7.952544
    9        2.657046
   10        3.315338
   11        3.326012
   12        3.474657
 
  0.5000000E+00  0.1388889E+00  0.0000000E+00  0.2314815E-02
    1      -20.434854
    2      -20.434854
    3      -10.345029
    4      -10.345029
    5       -8.870123
    6       -8.870123
    7       -8.236214
    8       -8.236214
    9        2.972692
   10        2.972692
   11        3.760306
   12        3.760308
 
  0.0000000E+00  0.1666667E+00  0.0000000E+00  0.2314815E-02
    1      -21.727167
    2      -16.646726
    3      -15.547107
    4      -10.909756
    5       -9.747518
    6       -7.471162
    7       -6.822211
    8       -4.560240
    9       -1.314536
   10        1.197046
   11        2.004920
   12        2.399022
 
  0.4166667E-01  0.1666667E+00  0.0000000E+00  0.4629630E-02
    1      -21.717072
    2      -16.795857
    3      -15.385137
    4      -10.898522
    5       -9.735578
    6       -7.519827
    7       -6.819026
    8       -4.631752
    9       -1.231785
   10        1.210780
   11        2.018814
   12        2.413131
 
  0.8333333E-01  0.1666667E+00  0.0000000E+00  0.4629630E-02
    1      -21.686795
    2      -17.111150
    3      -15.031535
    4      -10.864775
    5       -9.699777
    6       -7.651159
    7       -6.823779
    8       -4.826883
    9       -1.003109
   10        1.251989
   11        2.060492
   12        2.455458
 
  0.1250000E+00  0.1666667E+00  0.0000000E+00  0.4629630E-02
    1      -21.636360
    2      -17.470496
    3      -14.609034
    4      -10.808370
    5       -9.640173
    6       -7.839286
    7       -6.861050
    8       -5.105254
    9       -0.669395
   10        1.320696
   11        2.129939
   12        2.526009
 
  0.1666667E+00  0.1666667E+00  0.0000000E+00  0.4629630E-02
    1      -21.565805
    2      -17.835882
    3      -14.156744
    4      -10.729040
    5       -9.556866
    6       -8.064964
    7       -6.947287
    8       -5.430672
    9       -0.267665
   10        1.416932
   11        2.227133
   12        2.624790
 
  0.2083333E+00  0.1666667E+00  0.0000000E+00  0.4629630E-02
    1      -21.475185
    2      -18.194837
    3      -13.688767
    4      -10.626342
    5       -9.449998
    6       -8.316221
    7       -7.089593
    8       -5.778653
    9        0.176475
   10        1.540723
   11        2.352037
   12        2.751808
 
  0.2500000E+00  0.1666667E+00  0.0000000E+00  0.4629630E-02
    1      -21.364574
    2      -18.542181
    3      -13.212574
    4      -10.499591
    5       -9.319762
    6       -8.585683
    7       -7.288148
    8       -6.133992
    9        0.646444
   10        1.692079
   11        2.504605
   12        2.907069
 
  0.2916667E+00  0.1666667E+00  0.0000000E+00  0.4629630E-02
    1      -21.234062
    2      -18.875289
    3      -12.733873
    4      -10.347762
    5       -9.166403
    6       -8.869068
    7       -7.537948
    8       -6.487250
    9        1.131219
   10        1.870983
   11        2.684772
   12        3.090575
 
  0.3333333E+00  0.1666667E+00  0.0000000E+00  0.4629630E-02
    1      -21.083764
    2      -19.192623
    3      -12.258261
    4      -10.169383
    5       -9.164625
    6       -8.990229
    7       -7.830025
    8       -6.832377
    9        1.623004
   10        2.077391
   11        2.892455
   12        3.302322
 
  0.3750000E+00  0.1666667E+00  0.0000000E+00  0.4629630E-02
    1      -20.913814
    2      -19.493176
    3      -11.791879
    4       -9.962520
    5       -9.473031
    6       -8.791622
    7       -8.152379
    8       -7.165324
    9        2.115899
   10        2.311234
   11        3.127547
   12        3.542303
 
  0.4166667E+00  0.1666667E+00  0.0000000E+00  0.4629630E-02
    1      -20.724376
    2      -19.776236
    3      -11.341495
    4       -9.797353
    5       -9.725037
    6       -8.571053
    7       -8.490800
    8       -7.483270
    9        2.572421
   10        2.605164
   11        3.389905
   12        3.810507
 
  0.4583333E+00  0.1666667E+00  0.0000000E+00  0.4629630E-02
    1      -20.515643
    2      -20.041267
    3      -10.913795
    4      -10.142523
    5       -9.455538
    6       -8.829933
    7       -8.329106
    8       -7.784172
    9        2.860844
   10        3.086779
   11        3.518864
   12        3.679329
 
  0.5000000E+00  0.1666667E+00  0.0000000E+00  0.2314815E-02
    1      -20.287849
    2      -20.287849
    3      -10.513717
    4      -10.513717
    5       -9.155213
    6       -9.155213
    7       -8.066508
    8       -8.066508
    9        3.176376
   10        3.176376
   11        3.557161
   12        3.557161
 