       N       E                     dE             d eps       ncg     rms          rms(c)
DAV:   1     0.189322775431E+03    0.18932E+03   -0.10596E+04  5928   0.274E+03
DAV:   2    -0.944497495164E+01   -0.19877E+03   -0.17563E+03 10340   0.262E+02
DAV:   3    -0.383512600637E+02   -0.28906E+02   -0.28274E+02  7356   0.119E+02    0.731E+00
RMM:   4    -0.376941462731E+02    0.65711E+00   -0.94438E+00  5928   0.264E+01    0.423E+00
RMM:   5    -0.369337334548E+02    0.76041E+00   -0.28143E+00  5929   0.115E+01    0.727E-01
RMM:   6    -0.369350678855E+02   -0.13344E-02   -0.80811E-02  6352   0.202E+00    0.518E-01
RMM:   7    -0.369254678634E+02    0.96000E-02   -0.32768E-02  5941   0.158E+00    0.342E-01
RMM:   8    -0.369198753226E+02    0.55925E-02   -0.74097E-03  5928   0.572E-01    0.135E-01
RMM:   9    -0.369195110541E+02    0.36427E-03   -0.20707E-02  5928   0.852E-01    0.160E-01
RMM:  10    -0.369193934378E+02    0.11762E-03   -0.26176E-03  5928   0.370E-01    0.305E-02
RMM:  11    -0.369219511840E+02   -0.25577E-02   -0.74374E-04  5929   0.177E-01    0.462E-02
RMM:  12    -0.369224001190E+02   -0.44893E-03   -0.24727E-04  5939   0.104E-01    0.437E-03
RMM:  13    -0.369226545230E+02   -0.25440E-03   -0.50186E-05  6008   0.395E-02    0.469E-03
RMM:  14    -0.369227396285E+02   -0.85106E-04   -0.12277E-05  5937   0.203E-02    0.241E-03
RMM:  15    -0.369227473905E+02   -0.77620E-05   -0.14051E-06  6003   0.712E-03    0.713E-04
RMM:  16    -0.369227592752E+02   -0.11885E-04   -0.34929E-07  6043   0.333E-03    0.395E-04
RMM:  17    -0.369227626934E+02   -0.34181E-05   -0.22443E-08  6121   0.123E-03    0.609E-04
RMM:  18    -0.369227647378E+02   -0.20444E-05   -0.79439E-08  5928   0.190E-03    0.132E-04
RMM:  19    -0.369227650086E+02   -0.27082E-06   -0.43161E-09  5941   0.429E-04    0.205E-05
RMM:  20    -0.369227650542E+02   -0.45668E-07   -0.47720E-10  4483   0.115E-04    0.115E-05
RMM:  21    -0.369227650659E+02   -0.11634E-07   -0.10817E-10  3960   0.595E-05    0.712E-06
RMM:  22    -0.369227650659E+02   -0.68553E-10   -0.10645E-11  3867   0.427E-05
   1 F= -.36922765E+02 E0= -.36922720E+02  d E =-.369228E+02
       N       E                     dE             d eps       ncg     rms          rms(c)
DAV:   1    -0.369227647259E+02    0.34000E-06   -0.30952E-05  6584   0.523E-02    0.111E-03
RMM:   2    -0.369227647449E+02   -0.18974E-07   -0.50099E-07  5963   0.628E-03    0.795E-04
RMM:   3    -0.369227647297E+02    0.15130E-07   -0.88959E-08  5978   0.240E-03    0.202E-04
RMM:   4    -0.369227647285E+02    0.12108E-08   -0.54963E-09  6041   0.591E-04    0.576E-05
RMM:   5    -0.369227647287E+02   -0.20475E-09   -0.40977E-10  4396   0.148E-04    0.270E-05
RMM:   6    -0.369227647286E+02    0.16530E-09   -0.53959E-11  3757   0.713E-05    0.350E-06
RMM:   7    -0.369227647283E+02    0.21691E-09   -0.20366E-11  3737   0.509E-05    0.239E-06
RMM:   8    -0.369227647284E+02   -0.51159E-10   -0.10903E-11  3195   0.356E-05
   2 F= -.36922765E+02 E0= -.36922721E+02  d E =0.337558E-06
       N       E                     dE             d eps       ncg     rms          rms(c)
DAV:   1    -0.369227650930E+02   -0.36465E-06   -0.19706E-05  6556   0.418E-02    0.894E-04
RMM:   2    -0.369227651012E+02   -0.82641E-08   -0.30789E-07  5944   0.500E-03    0.634E-04
RMM:   3    -0.369227650910E+02    0.10200E-07   -0.55499E-08  5961   0.190E-03    0.155E-04
RMM:   4    -0.369227650903E+02    0.79251E-09   -0.32885E-09  6060   0.460E-04    0.456E-05
RMM:   5    -0.369227650903E+02   -0.48431E-10   -0.23406E-10  4131   0.116E-04
   3 F= -.36922765E+02 E0= -.36922720E+02  d E =-.361915E-06
       N       E                     dE             d eps       ncg     rms          rms(c)
DAV:   1    -0.369227650896E+02    0.67530E-09    0.57041E-09  4608   0.836E-05    0.267E-06
RMM:   2    -0.369227650902E+02   -0.59265E-09    0.28604E-12  3114   0.333E-05    0.140E-06
RMM:   3    -0.369227650903E+02   -0.11505E-09   -0.73781E-12  2942   0.330E-05    0.195E-07
RMM:   4    -0.369227650901E+02    0.18463E-09   -0.21588E-12  2616   0.285E-05    0.180E-07
RMM:   5    -0.369227650903E+02   -0.16200E-09   -0.23269E-12  2355   0.249E-05    0.406E-08
RMM:   6    -0.369227650901E+02    0.14325E-09   -0.16865E-12  2177   0.228E-05    0.444E-08
RMM:   7    -0.369227650900E+02    0.85947E-10   -0.22068E-12  1998   0.210E-05
   4 F= -.36922765E+02 E0= -.36922720E+02  d E =0.267846E-09
       N       E                     dE             d eps       ncg     rms          rms(c)
DAV:   1    -0.369227650895E+02    0.65143E-09    0.57622E-09  4432   0.212E-05    0.345E-07
RMM:   2    -0.369227650900E+02   -0.52853E-09   -0.46588E-13  1403   0.831E-06    0.217E-07
RMM:   3    -0.369227650901E+02   -0.14245E-09   -0.93834E-14  1379   0.828E-06    0.118E-08
RMM:   4    -0.369227650901E+02   -0.28422E-11    0.11316E-13  1279   0.818E-06    0.806E-09
RMM:   5    -0.369227650900E+02    0.18531E-09    0.25823E-14  1337   0.816E-06    0.355E-09
RMM:   6    -0.369227650901E+02   -0.14927E-09   -0.65914E-14  1175   0.810E-06    0.277E-09
RMM:   7    -0.369227650902E+02   -0.13222E-09   -0.39187E-13  1196   0.810E-06    0.452E-09
RMM:   8    -0.369227650905E+02   -0.22283E-09   -0.25453E-13  1176   0.801E-06    0.421E-09
RMM:   9    -0.369227650900E+02    0.48101E-09   -0.11197E-13  1164   0.786E-06    0.314E-09
RMM:  10    -0.369227650903E+02   -0.31662E-09   -0.18487E-13   954   0.787E-06    0.365E-09
RMM:  11    -0.369227650901E+02    0.19747E-09   -0.12303E-13   990   0.787E-06    0.315E-09
RMM:  12    -0.369227650901E+02    0.27626E-10    0.34799E-13  1085   0.773E-06
   5 F= -.36922765E+02 E0= -.36922720E+02  d E =-.378577E-10
