gr                                      
           1
     4.294623    0.000000    0.000000
     0.000000    2.464966    0.000000
     0.000000    0.000000   19.916486
   C 
   4
Direct configuration=     1
   0.99987391  0.00000000  0.00000000
   0.16679275  0.50000000  0.00000000
   0.49987391  0.50000000  0.00000000
   0.66679275  0.00000000  0.00000000
Direct configuration=     2
   0.99988617  0.00000000 -0.00000000
   0.16678049  0.50000000  0.00000000
   0.49988617  0.50000000 -0.00000000
   0.66678049  0.00000000  0.00000000
Direct configuration=     3
   0.99987638  0.00000000 -0.00000000
   0.16679028  0.50000000  0.00000000
   0.49987638  0.50000000 -0.00000000
   0.66679028  0.00000000  0.00000000
Direct configuration=     4
   0.99987639  0.00000000  0.00000000
   0.16679028  0.50000000 -0.00000000
   0.49987639  0.50000000  0.00000000
   0.66679028  0.00000000 -0.00000000
Direct configuration=     5
   0.99987639  0.00000000  0.00000000
   0.16679028  0.50000000 -0.00000000
   0.49987639  0.50000000  0.00000000
   0.66679028  0.00000000 -0.00000000
