    4    4  400    1
  0.5270948E+02  0.4381593E-09  0.2457034E-09  0.1958419E-08  0.5000000E-15
  1.000000000000000E-004
  CAR 
 gr                                      
     16    247     12
 
  0.0000000E+00  0.0000000E+00  0.0000000E+00  0.1157407E-02
    1      -22.078242
    2      -17.260765
    3      -15.830430
    4      -10.223514
    5       -8.799829
    6       -6.009430
    7       -5.726376
    8       -5.338513
    9       -1.187353
   10        0.545094
   11        1.343135
   12        1.736714
 
  0.4166667E-01  0.0000000E+00  0.0000000E+00  0.2314815E-02
    1      -22.068491
    2      -17.378414
    3      -15.697805
    4      -10.211945
    5       -8.790394
    6       -6.053741
    7       -5.746408
    8       -5.397119
    9       -1.113034
   10        0.558282
   11        1.356516
   12        1.750263
 
  0.8333333E-01  0.0000000E+00  0.0000000E+00  0.2314815E-02
    1      -22.039243
    2      -17.651019
    3      -15.380349
    4      -10.177257
    5       -8.762140
    6       -6.184554
    7       -5.805465
    8       -5.561131
    9       -0.902041
   10        0.597854
   11        1.396654
   12        1.790914
 
  0.1250000E+00  0.0000000E+00  0.0000000E+00  0.2314815E-02
    1      -21.990518
    2      -17.980720
    3      -14.976149
    4      -10.119507
    5       -8.715219
    6       -6.395930
    7       -5.900587
    8       -5.803395
    9       -0.582000
   10        0.663831
   11        1.463535
   12        1.858669
 
  0.1666667E+00  0.0000000E+00  0.0000000E+00  0.2314815E-02
    1      -21.922352
    2      -18.325049
    3      -14.528060
    4      -10.038793
    5       -8.649891
    6       -6.679185
    7       -6.095563
    8       -6.027327
    9       -0.182059
   10        0.756237
   11        1.557131
   12        1.953533
 
  0.2083333E+00  0.0000000E+00  0.0000000E+00  0.2314815E-02
    1      -21.834796
    2      -18.667578
    3      -14.053074
    4       -9.935259
    5       -8.566530
    6       -7.024198
    7       -6.415393
    8       -6.180318
    9        0.274378
   10        0.875089
   11        1.677400
   12        2.075510
 
  0.2500000E+00  0.0000000E+00  0.0000000E+00  0.2314815E-02
    1      -21.727913
    2      -19.001117
    3      -13.559123
    4       -9.809095
    5       -8.465637
    6       -7.420558
    7       -6.747401
    8       -6.353821
    9        0.770264
   10        1.020389
   11        1.824273
   12        2.224601
 
  0.2916667E+00  0.0000000E+00  0.0000000E+00  0.2314815E-02
    1      -21.601791
    2      -19.322057
    3      -13.050769
    4       -9.660550
    5       -8.347853
    6       -7.858381
    7       -7.081213
    8       -6.542171
    9        1.192120
   10        1.293162
   11        1.997644
   12        2.400805
 
  0.3333333E+00  0.0000000E+00  0.0000000E+00  0.2314815E-02
    1      -21.456531
    2      -19.628354
    3      -12.531246
    4       -9.489940
    5       -8.328750
    6       -8.213982
    7       -7.409871
    8       -6.740078
    9        1.390254
   10        1.833303
   11        2.197330
   12        2.604117
 
  0.3750000E+00  0.0000000E+00  0.0000000E+00  0.2314815E-02
    1      -21.292258
    2      -19.918741
    3      -12.003284
    4       -9.297661
    5       -8.823878
    6       -8.065014
    7       -7.728620
    8       -6.942783
    9        1.614741
   10        2.381525
   11        2.422985
   12        2.834530
 
  0.4166667E+00  0.0000000E+00  0.0000000E+00  0.2314815E-02
    1      -21.109123
    2      -20.192364
    3      -11.469518
    4       -9.337087
    5       -9.084211
    6       -8.034128
    7       -7.902160
    8       -7.146127
    9        1.865519
   10        2.673834
   11        2.923719
   12        3.092031
 
  0.4583333E+00  0.0000000E+00  0.0000000E+00  0.2314815E-02
    1      -20.907312
    2      -20.448617
    3      -10.932716
    4       -9.862709
    5       -8.850217
    6       -8.324001
    7       -7.726888
    8       -7.346532
    9        2.142499
   10        2.774563
   11        2.947608
   12        3.365860
 
  0.5000000E+00  0.0000000E+00  0.0000000E+00  0.1157407E-02
    1      -20.687050
    2      -20.687050
    3      -10.395945
    4      -10.395945
    5       -8.596474
    6       -8.596474
    7       -7.540968
    8       -7.540968
    9        2.445567
   10        2.445567
   11        3.233205
   12        3.233205
 
  0.0000000E+00  0.2777778E-01  0.0000000E+00  0.2314815E-02
    1      -22.064411
    2      -17.248757
    3      -15.818636
    4      -10.207100
    5       -8.863173
    6       -6.035467
    7       -5.785465
    8       -5.321825
    9       -1.189773
   10        0.563832
   11        1.362061
   12        1.755879
 
  0.4166667E-01  0.2777778E-01  0.0000000E+00  0.4629630E-02
    1      -22.054661
    2      -17.366288
    3      -15.686173
    4      -10.195535
    5       -8.853727
    6       -6.080474
    7       -5.804197
    8       -5.380544
    9       -1.115442
   10        0.577020
   11        1.375442
   12        1.769429
 
  0.8333333E-01  0.2777778E-01  0.0000000E+00  0.4629630E-02
    1      -22.025417
    2      -17.638672
    3      -15.369071
    4      -10.160858
    5       -8.825438
    6       -6.212100
    7       -5.860738
    8       -5.544824
    9       -0.904486
   10        0.616592
   11        1.415578
   12        1.810079
 
  0.1250000E+00  0.2777778E-01  0.0000000E+00  0.4629630E-02
    1      -21.976700
    2      -17.968161
    3      -14.965311
    4      -10.103127
    5       -8.778456
    6       -6.422830
    7       -5.953988
    8       -5.787376
    9       -0.584666
   10        0.682570
   11        1.482456
   12        1.877835
 
  0.1666667E+00  0.2777778E-01  0.0000000E+00  0.4629630E-02
    1      -21.908545
    2      -18.312305
    3      -14.517737
    4      -10.022441
    5       -8.713037
    6       -6.703802
    7       -6.080035
    8       -6.079770
    9       -0.185216
   10        0.774978
   11        1.576048
   12        1.972700
 
  0.2083333E+00  0.2777778E-01  0.0000000E+00  0.4629630E-02
    1      -21.821004
    2      -18.654673
    3      -14.043350
    4       -9.918941
    5       -8.629549
    6       -7.045439
    7       -6.399741
    8       -6.233286
    9        0.270439
   10        0.893833
   11        1.696311
   12        2.094678
 
  0.2500000E+00  0.2777778E-01  0.0000000E+00  0.4629630E-02
    1      -21.714140
    2      -18.988075
    3      -13.550099
    4       -9.792819
    5       -8.528485
    6       -7.437935
    7       -6.731815
    8       -6.407637
    9        0.765268
   10        1.039137
   11        1.843180
   12        2.243770
 
  0.2916667E+00  0.2777778E-01  0.0000000E+00  0.4629630E-02
    1      -21.588040
    2      -19.308895
    3      -13.042568
    4       -9.644324
    5       -8.410477
    6       -7.871846
    7       -7.065637
    8       -6.597128
    9        1.210875
   10        1.286870
   11        2.016547
   12        2.419976
 
  0.3333333E+00  0.2777778E-01  0.0000000E+00  0.4629630E-02
    1      -21.442807
    2      -19.615089
    3      -12.524012
    4       -9.473771
    5       -8.338518
    6       -8.276318
    7       -7.394265
    8       -6.796263
    9        1.409016
   10        1.825544
   11        2.216232
   12        2.623292
 
  0.3750000E+00  0.2777778E-01  0.0000000E+00  0.4629630E-02
    1      -21.278566
    2      -19.905386
    3      -11.997190
    4       -9.281555
    5       -8.830297
    6       -8.126985
    7       -7.712960
    8       -7.000163
    9        1.633512
   10        2.372300
   11        2.441893
   12        2.853709
 
  0.4166667E+00  0.2777778E-01  0.0000000E+00  0.4629630E-02
    1      -21.095470
    2      -20.178931
    3      -11.464770
    4       -9.340553
    5       -9.068175
    6       -8.018399
    7       -7.963673
    8       -7.204601
    9        1.884299
   10        2.692759
   11        2.913842
   12        3.111216
 
  0.4583333E+00  0.2777778E-01  0.0000000E+00  0.4629630E-02
    1      -20.893702
    2      -20.435116
    3      -10.929556
    4       -9.863615
    5       -8.834255
    6       -8.308196
    7       -7.787835
    8       -7.405969
    9        2.161292
   10        2.793399
   11        2.966543
   12        3.367343
 
  0.5000000E+00  0.2777778E-01  0.0000000E+00  0.2314815E-02
    1      -20.673491
    2      -20.673491
    3      -10.394655
    4      -10.394655
    5       -8.580590
    6       -8.580590
    7       -7.601228
    8       -7.601228
    9        2.464377
   10        2.464377
   11        3.251719
   12        3.251719
 
  0.0000000E+00  0.5555556E-01  0.0000000E+00  0.2314815E-02
    1      -22.022926
    2      -17.212736
    3      -15.783393
    4      -10.157893
    5       -9.048069
    6       -6.113192
    7       -5.957868
    8       -5.271782
    9       -1.197836
   10        0.620045
   11        1.418834
   12        1.813375
 
  0.4166667E-01  0.5555556E-01  0.0000000E+00  0.4629630E-02
    1      -22.013180
    2      -17.329918
    3      -15.651415
    4      -10.146339
    5       -9.038585
    6       -6.163005
    7       -5.970015
    8       -5.330851
    9       -1.123465
   10        0.633233
   11        1.432212
   12        1.826925
 
  0.8333333E-01  0.5555556E-01  0.0000000E+00  0.4629630E-02
    1      -21.983950
    2      -17.601647
    3      -15.335380
    4      -10.111697
    5       -9.010178
    6       -6.299867
    7       -6.016295
    8       -5.495955
    9       -0.912618
   10        0.672804
   11        1.472342
   12        1.867575
 
  0.1250000E+00  0.5555556E-01  0.0000000E+00  0.4629630E-02
    1      -21.935257
    2      -17.930501
    3      -14.932954
    4      -10.054025
    5       -8.962991
    6       -6.509369
    7       -6.103314
    8       -5.739392
    9       -0.593472
   10        0.738782
   11        1.539209
   12        1.935331
 
  0.1666667E+00  0.5555556E-01  0.0000000E+00  0.4629630E-02
    1      -21.867136
    2      -18.274089
    3      -14.486945
    4       -9.973421
    5       -8.897267
    6       -6.783233
    7       -6.227605
    8       -6.032475
    9       -0.195521
   10        0.831192
   11        1.632787
   12        2.030197
 
  0.2083333E+00  0.5555556E-01  0.0000000E+00  0.4629630E-02
    1      -21.779639
    2      -18.615977
    3      -14.014390
    4       -9.870026
    5       -8.813355
    6       -7.114134
    7       -6.382284
    8       -6.352873
    9        0.257745
   10        0.950053
   11        1.753035
   12        2.152178
 
  0.2500000E+00  0.5555556E-01  0.0000000E+00  0.4629630E-02
    1      -21.672831
    2      -18.948964
    3      -13.523286
    4       -9.744033
    5       -8.711722
    6       -7.494305
    7       -6.685145
    8       -6.559922
    9        0.749341
   10        1.095366
   11        1.899888
   12        2.301275
 
  0.2916667E+00  0.5555556E-01  0.0000000E+00  0.4629630E-02
    1      -21.546801
    2      -19.269424
    3      -13.018282
    4       -9.595689
    5       -8.592972
    6       -7.915738
    7       -7.018992
    8       -6.753554
    9        1.266971
   10        1.267118
   11        2.073242
   12        2.477487
 
  0.3333333E+00  0.5555556E-01  0.0000000E+00  0.4629630E-02
    1      -21.401649
    2      -19.575307
    3      -12.502709
    4       -9.425308
    5       -8.457857
    6       -8.370642
    7       -7.347528
    8       -6.957024
    9        1.465275
   10        1.801124
   11        2.272925
   12        2.680810
 
  0.3750000E+00  0.5555556E-01  0.0000000E+00  0.4629630E-02
    1      -21.237505
    2      -19.865335
    3      -11.979416
    4       -9.233286
    5       -8.851792
    6       -8.307313
    7       -7.666055
    8       -7.165061
    9        1.689791
   10        2.343278
   11        2.498604
   12        2.911238
 
  0.4166667E+00  0.5555556E-01  0.0000000E+00  0.4629630E-02
    1      -21.054521
    2      -20.138646
    3      -11.451173
    4       -9.352707
    5       -9.020118
    6       -8.142484
    7       -7.971283
    8       -7.373231
    9        1.940600
   10        2.749520
   11        2.882168
   12        3.168760
 
  0.4583333E+00  0.5555556E-01  0.0000000E+00  0.4629630E-02
    1      -20.852884
    2      -20.394628
    3      -10.920905
    4       -9.867703
    5       -8.786425
    6       -8.260846
    7       -7.964767
    8       -7.577849
    9        2.217619
   10        2.849816
   11        3.023340
   12        3.362493
 
  0.5000000E+00  0.5555556E-01  0.0000000E+00  0.2314815E-02
    1      -20.632826
    2      -20.632826
    3      -10.391853
    4      -10.391853
    5       -8.532998
    6       -8.532998
    7       -7.775866
    8       -7.775866
    9        2.520739
   10        2.520739
   11        3.306996
   12        3.306996
 
  0.0000000E+00  0.8333333E-01  0.0000000E+00  0.2314815E-02
    1      -21.953822
    2      -17.152714
    3      -15.725146
    4      -10.075998
    5       -9.340560
    6       -6.241440
    7       -6.230520
    8       -5.188449
    9       -1.213959
   10        0.713732
   11        1.513429
   12        1.909203
 
  0.4166667E-01  0.8333333E-01  0.0000000E+00  0.4629630E-02
    1      -21.944084
    2      -17.269333
    3      -15.593968
    4      -10.064465
    5       -9.330997
    6       -6.325520
    7       -6.205537
    8       -5.248136
    9       -1.139506
   10        0.726917
   11        1.526804
   12        1.922752
 
  0.8333333E-01  0.8333333E-01  0.0000000E+00  0.4629630E-02
    1      -21.914878
    2      -17.539990
    3      -15.279724
    4      -10.029883
    5       -9.302350
    6       -6.473491
    7       -6.232596
    8       -5.414686
    9       -0.928821
   10        0.766483
   11        1.566922
   12        1.963402
 
  0.1250000E+00  0.8333333E-01  0.0000000E+00  0.4629630E-02
    1      -21.866225
    2      -17.867796
    3      -14.879572
    4       -9.972312
    5       -9.254747
    6       -6.678587
    7       -6.311904
    8       -5.659665
    9       -0.610821
   10        0.832455
   11        1.633769
   12        2.031158
 
  0.1666667E+00  0.8333333E-01  0.0000000E+00  0.4629630E-02
    1      -21.798161
    2      -18.210458
    3      -14.436259
    4       -9.891848
    5       -9.188405
    6       -6.938066
    7       -6.436068
    8       -5.953937
    9       -0.215455
   10        0.924859
   11        1.727322
   12        2.126024
 
  0.2083333E+00  0.8333333E-01  0.0000000E+00  0.4629630E-02
    1      -21.710738
    2      -18.551542
    3      -13.966880
    4       -9.788634
    5       -9.103638
    6       -7.248405
    7       -6.595940
    8       -6.275063
    9        0.233681
   10        1.043718
   11        1.847540
   12        2.248006
 
  0.2500000E+00  0.8333333E-01  0.0000000E+00  0.4629630E-02
    1      -21.604025
    2      -18.883835
    3      -13.479527
    4       -9.662861
    5       -9.000864
    6       -7.605134
    7       -6.781990
    8       -6.607663
    9        0.719686
   10        1.189034
   11        1.994361
   12        2.397107
 
  0.2916667E+00  0.8333333E-01  0.0000000E+00  0.4629630E-02
    1      -21.478108
    2      -19.203695
    3      -12.978966
    4       -9.514776
    5       -8.880622
    6       -8.002824
    7       -6.985425
    8       -6.941544
    9        1.230434
   10        1.360793
   11        2.167690
   12        2.573326
 
  0.3333333E+00  0.8333333E-01  0.0000000E+00  0.4629630E-02
    1      -21.333093
    2      -19.509056
    3      -12.468672
    4       -9.344693
    5       -8.743590
    6       -8.435367
    7       -7.269911
    8       -7.198773
    9        1.558962
   10        1.756693
   11        2.367364
   12        2.776659
 
  0.3750000E+00  0.8333333E-01  0.0000000E+00  0.4629630E-02
    1      -21.169110
    2      -19.798632
    3      -11.951666
    4       -9.153004
    5       -8.896418
    6       -8.590608
    7       -7.588141
    8       -7.415979
    9        1.783492
   10        2.290562
   11        2.593073
   12        3.007099
 
  0.4166667E+00  0.8333333E-01  0.0000000E+00  0.4629630E-02
    1      -20.986314
    2      -20.071551
    3      -11.430923
    4       -9.379801
    5       -8.940201
    6       -8.422709
    7       -7.892998
    8       -7.632241
    9        2.034316
   10        2.823133
   11        2.844085
   12        3.264638
 
  0.4583333E+00  0.8333333E-01  0.0000000E+00  0.4629630E-02
    1      -20.784898
    2      -20.327193
    3      -10.909609
    4       -9.879789
    5       -8.706902
    6       -8.241165
    7       -8.182153
    8       -7.843763
    9        2.311350
   10        2.943601
   11        3.117981
   12        3.326691
 
  0.5000000E+00  0.8333333E-01  0.0000000E+00  0.2314815E-02
    1      -20.565095
    2      -20.565095
    3      -10.391238
    4      -10.391238
    5       -8.453886
    6       -8.453886
    7       -8.047538
    8       -8.047538
    9        2.614491
   10        2.614491
   11        3.397713
   12        3.397713
 
  0.0000000E+00  0.1111111E+00  0.0000000E+00  0.2314815E-02
    1      -21.857160
    2      -17.068711
    3      -15.644731
    4       -9.961597
    5       -9.721304
    6       -6.585689
    7       -6.418225
    8       -5.071937
    9       -1.242171
   10        0.844887
   11        1.645808
   12        2.043364
 
  0.4166667E-01  0.1111111E+00  0.0000000E+00  0.4629630E-02
    1      -21.847433
    2      -17.184582
    3      -15.514661
    4       -9.950093
    5       -9.711601
    6       -6.638953
    7       -6.420273
    8       -5.132569
    9       -1.167561
   10        0.858068
   11        1.659176
   12        2.056912
 
  0.8333333E-01  0.1111111E+00  0.0000000E+00  0.4629630E-02
    1      -21.818260
    2      -17.453785
    3      -15.202959
    4       -9.915600
    5       -9.682523
    6       -6.772949
    7       -6.450512
    8       -5.301313
    9       -0.957045
   10        0.897621
   11        1.699274
   12        2.097560
 
  0.1250000E+00  0.1111111E+00  0.0000000E+00  0.4629630E-02
    1      -21.769663
    2      -17.780141
    3      -14.806115
    4       -9.858175
    5       -9.634173
    6       -6.963317
    7       -6.528267
    8       -5.548600
    9       -0.640680
   10        0.963573
   11        1.766090
   12        2.165312
 
  0.1666667E+00  0.1111111E+00  0.0000000E+00  0.4629630E-02
    1      -21.701679
    2      -18.121509
    3      -14.366790
    4       -9.777917
    5       -9.566723
    6       -7.200748
    7       -6.654747
    8       -5.844623
    9       -0.249096
   10        1.055953
   11        1.859600
   12        2.260175
 
  0.2083333E+00  0.1111111E+00  0.0000000E+00  0.4629630E-02
    1      -21.614361
    2      -18.461464
    3      -13.902171
    4       -9.674968
    5       -9.480419
    6       -7.481001
    7       -6.823557
    8       -6.166802
    9        0.193975
   10        1.174789
   11        1.979766
   12        2.382156
 
  0.2500000E+00  0.1111111E+00  0.0000000E+00  0.4629630E-02
    1      -21.507780
    2      -18.792778
    3      -13.420503
    4       -9.549517
    5       -9.375588
    6       -7.801747
    7       -7.024673
    8       -6.499860
    9        0.671762
   10        1.320086
   11        2.126532
   12        2.531257
 
  0.2916667E+00  0.1111111E+00  0.0000000E+00  0.4629630E-02
    1      -21.382023
    2      -19.111789
    3      -12.926754
    4       -9.401813
    5       -9.252650
    6       -8.161011
    7       -7.246960
    8       -6.833761
    9        1.172382
   10        1.491833
   11        2.299812
   12        2.707480
 
  0.3333333E+00  0.1111111E+00  0.0000000E+00  0.4629630E-02
    1      -21.237200
    2      -19.416415
    3      -12.424648
    4       -9.232167
    5       -9.112125
    6       -8.556042
    7       -7.480183
    8       -7.161856
    9        1.686945
   10        1.689994
   11        2.499462
   12        2.910820
 
  0.3750000E+00  0.1111111E+00  0.0000000E+00  0.4629630E-02
    1      -21.073443
    2      -19.705351
    3      -11.917520
    4       -9.040968
    5       -8.982816
    6       -8.954657
    7       -7.716164
    8       -7.479630
    9        1.914515
   10        2.208176
   11        2.725208
   12        3.141272
 
  0.4166667E+00  0.1111111E+00  0.0000000E+00  0.4629630E-02
    1      -20.890913
    2      -19.977718
    3      -11.408728
    4       -9.436264
    5       -8.828704
    6       -8.781035
    7       -7.948941
    8       -7.783925
    9        2.165327
   10        2.729076
   11        2.976379
   12        3.398826
 
  0.4583333E+00  0.1111111E+00  0.0000000E+00  0.4629630E-02
    1      -20.689808
    2      -20.232880
    3      -10.901900
    4       -9.910846
    5       -8.595985
    6       -8.592235
    7       -8.174351
    8       -8.072468
    9        2.442343
   10        3.074536
   11        3.237727
   12        3.250434
 
  0.5000000E+00  0.1111111E+00  0.0000000E+00  0.2314815E-02
    1      -20.470365
    2      -20.470365
    3      -10.401086
    4      -10.401086
    5       -8.389482
    6       -8.389482
    7       -8.343579
    8       -8.343579
    9        2.745457
   10        2.745457
   11        3.516153
   12        3.516153
 
  0.0000000E+00  0.1388889E+00  0.0000000E+00  0.2314815E-02
    1      -21.733025
    2      -16.960759
    3      -15.543553
    4      -10.169109
    5       -9.814950
    6       -7.004648
    7       -6.640737
    8       -4.922403
    9       -1.288055
   10        1.013500
   11        1.815911
   12        2.215857
 
  0.4166667E-01  0.1388889E+00  0.0000000E+00  0.4629630E-02
    1      -21.723313
    2      -17.075740
    3      -15.414892
    4      -10.159164
    5       -9.803486
    6       -7.050630
    7       -6.645554
    8       -4.984406
    9       -1.213143
   10        1.026673
   11        1.829268
   12        2.229404
 
  0.8333333E-01  0.1388889E+00  0.0000000E+00  0.4629630E-02
    1      -21.694182
    2      -17.343160
    3      -15.106549
    4      -10.129347
    5       -9.769113
    6       -7.174359
    7       -6.673112
    8       -5.156300
    9       -1.002687
   10        1.066202
   11        1.869335
   12        2.270048
 
  0.1250000E+00  0.1388889E+00  0.0000000E+00  0.4629630E-02
    1      -21.645658
    2      -17.667684
    3      -14.714233
    4      -10.079709
    5       -9.711889
    6       -7.353711
    7       -6.742136
    8       -5.406839
    9       -0.688426
   10        1.132114
   11        1.936099
   12        2.337792
 
  0.1666667E+00  0.1388889E+00  0.0000000E+00  0.4629630E-02
    1      -21.577778
    2      -18.007391
    3      -14.280509
    4      -10.010339
    5       -9.631911
    6       -7.574544
    7       -6.860924
    8       -5.705273
    9       -0.301929
   10        1.224445
   11        2.029537
   12        2.432647
 
  0.2083333E+00  0.1388889E+00  0.0000000E+00  0.4629630E-02
    1      -21.490596
    2      -18.345886
    3      -13.822705
    4       -9.921353
    5       -9.529323
    6       -7.829191
    7       -7.028890
    8       -6.028859
    9        0.132922
   10        1.343225
   11        2.149615
   12        2.554619
 
  0.2500000E+00  0.1388889E+00  0.0000000E+00  0.4629630E-02
    1      -21.384184
    2      -18.675927
    3      -13.349326
    4       -9.812900
    5       -9.404314
    6       -8.114010
    7       -7.239387
    8       -6.362489
    9        0.599574
   10        1.488469
   11        2.296283
   12        2.703715
 
  0.2916667E+00  0.1388889E+00  0.0000000E+00  0.4629630E-02
    1      -21.258634
    2      -18.993833
    3      -12.865690
    4       -9.685149
    5       -9.257131
    6       -8.428117
    7       -7.481676
    8       -6.696363
    9        1.086480
   10        1.660167
   11        2.469466
   12        2.879935
 
  0.3333333E+00  0.1388889E+00  0.0000000E+00  0.4629630E-02
    1      -21.114059
    2      -19.297500
    3      -12.375987
    4       -9.538290
    5       -9.088083
    6       -8.772238
    7       -7.742926
    8       -7.024036
    9        1.585156
   10        1.858283
   11        2.669048
   12        3.083278
 
  0.3750000E+00  0.1388889E+00  0.0000000E+00  0.4629630E-02
    1      -20.950596
    2      -19.585605
    3      -11.884145
    4       -9.372527
    5       -9.147155
    6       -8.897558
    7       -8.010520
    8       -7.341144
    9        2.082760
   10        2.088905
   11        2.894817
   12        3.313736
 
  0.4166667E+00  0.1388889E+00  0.0000000E+00  0.4629630E-02
    1      -20.768411
    2      -19.857251
    3      -11.394274
    4       -9.552167
    5       -9.188087
    6       -8.686036
    7       -8.274149
    8       -7.644639
    9        2.333520
   10        2.591946
   11        3.146235
   12        3.571299
 
  0.4583333E+00  0.1388889E+00  0.0000000E+00  0.4629630E-02
    1      -20.567708
    2      -20.111789
    3      -10.910912
    4       -9.984377
    5       -8.985262
    6       -8.526817
    7       -8.454119
    8       -7.932321
    9        2.610469
   10        3.088246
   11        3.242453
   12        3.420638
 
  0.5000000E+00  0.1388889E+00  0.0000000E+00  0.2314815E-02
    1      -20.348733
    2      -20.348733
    3      -10.439119
    4      -10.439119
    5       -8.764523
    6       -8.764523
    7       -8.202561
    8       -8.202561
    9        2.913493
   10        2.913493
   11        3.552959
   12        3.552959
 
  0.0000000E+00  0.1666667E+00  0.0000000E+00  0.2314815E-02
    1      -21.581533
    2      -16.828899
    3      -15.423958
    4      -10.663203
    5       -9.636407
    6       -7.470136
    7       -6.905357
    8       -4.740054
    9       -1.358535
   10        1.219547
   11        2.023653
   12        2.426685
 
  0.4166667E-01  0.1666667E+00  0.0000000E+00  0.4629630E-02
    1      -21.571839
    2      -16.942917
    3      -15.297009
    4      -10.652844
    5       -9.624995
    6       -7.514764
    7       -6.906517
    8       -4.804028
    9       -1.283038
   10        1.232708
   11        2.036993
   12        2.440230
 
  0.8333333E-01  0.1666667E+00  0.0000000E+00  0.4629630E-02
    1      -21.542762
    2      -17.208302
    3      -14.992990
    4      -10.621753
    5       -9.590780
    6       -7.636245
    7       -6.921848
    8       -4.980368
    9       -1.072288
   10        1.272201
   11        2.077008
   12        2.480865
 
  0.1250000E+00  0.1666667E+00  0.0000000E+00  0.4629630E-02
    1      -21.494326
    2      -17.530644
    3      -14.606809
    4      -10.569885
    5       -9.533819
    6       -7.812394
    7       -6.971705
    8       -5.235371
    9       -0.760472
   10        1.338052
   11        2.143686
   12        2.548597
 
  0.1666667E+00  0.1666667E+00  0.0000000E+00  0.4629630E-02
    1      -21.426572
    2      -17.868323
    3      -14.180942
    4      -10.497154
    5       -9.454211
    6       -8.026451
    7       -7.069287
    8       -5.537009
    9       -0.380416
   10        1.430300
   11        2.237002
   12        2.643434
 
  0.2083333E+00  0.1666667E+00  0.0000000E+00  0.4629630E-02
    1      -21.339556
    2      -18.205012
    3      -13.732981
    4      -10.403409
    5       -9.352098
    6       -8.268014
    7       -7.219297
    8       -5.862383
    9        0.043894
   10        1.548982
   11        2.356924
   12        2.765387
 
  0.2500000E+00  0.1666667E+00  0.0000000E+00  0.4629630E-02
    1      -21.233354
    2      -18.533473
    3      -13.271906
    4      -10.288404
    5       -9.227673
    6       -8.530986
    7       -7.419920
    8       -6.196666
    9        0.496276
   10        1.694123
   11        2.503403
   12        2.914464
 
  0.2916667E+00  0.1666667E+00  0.0000000E+00  0.4629630E-02
    1      -21.108059
    2      -18.850004
    3      -12.803721
    4      -10.151757
    5       -9.081179
    6       -8.812399
    7       -7.664367
    8       -6.530401
    9        0.965680
   10        1.865721
   11        2.676377
   12        3.090672
 
  0.3333333E+00  0.1666667E+00  0.0000000E+00  0.4629630E-02
    1      -20.963790
    2      -19.152478
    3      -12.333542
    4       -9.992896
    5       -9.111928
    6       -8.912925
    7       -7.942072
    8       -6.857424
    9        1.444144
   10        2.063742
   11        2.875759
   12        3.294008
 
  0.3750000E+00  0.1666667E+00  0.0000000E+00  0.4629630E-02
    1      -20.800689
    2      -19.439548
    3      -11.866503
    4       -9.811025
    5       -9.431518
    6       -8.723296
    7       -8.239866
    8       -7.173578
    9        1.925551
   10        2.288125
   11        3.101420
   12        3.524465
 
  0.4166667E+00  0.1666667E+00  0.0000000E+00  0.4629630E-02
    1      -20.618932
    2      -19.710296
    3      -11.408166
    4       -9.774564
    5       -9.605160
    6       -8.543500
    7       -8.512766
    8       -7.475956
    9        2.404898
   10        2.538783
   11        3.353111
   12        3.782032
 
  0.4583333E+00  0.1666667E+00  0.0000000E+00  0.4629630E-02
    1      -20.418728
    2      -19.964059
    3      -10.964557
    4      -10.144267
    5       -9.374389
    6       -8.839738
    7       -8.281925
    8       -7.762455
    9        2.815609
   10        2.877843
   11        3.447223
   12        3.628342
 
  0.5000000E+00  0.1666667E+00  0.0000000E+00  0.2314815E-02
    1      -20.200333
    2      -20.200333
    3      -10.541658
    4      -10.541658
    5       -9.118587
    6       -9.118587
    7       -8.031511
    8       -8.031511
    9        3.118473
   10        3.118473
   11        3.340231
   12        3.340231
 