       N       E                     dE             d eps       ncg     rms          rms(c)
DAV:   1     0.187073964529E+03    0.18707E+03   -0.10603E+04  5928   0.275E+03
DAV:   2    -0.926388860297E+01   -0.19634E+03   -0.17330E+03 10284   0.260E+02
DAV:   3    -0.380738885470E+02   -0.28810E+02   -0.28028E+02  7388   0.118E+02    0.707E+00
RMM:   4    -0.375738401886E+02    0.50005E+00   -0.96359E+00  5928   0.264E+01    0.411E+00
RMM:   5    -0.368658757386E+02    0.70796E+00   -0.26417E+00  5929   0.111E+01    0.702E-01
RMM:   6    -0.368673063091E+02   -0.14306E-02   -0.79210E-02  6380   0.200E+00    0.499E-01
RMM:   7    -0.368585250346E+02    0.87813E-02   -0.31431E-02  5953   0.154E+00    0.325E-01
RMM:   8    -0.368537980963E+02    0.47269E-02   -0.58383E-03  5928   0.510E-01    0.140E-01
RMM:   9    -0.368534851821E+02    0.31291E-03   -0.20043E-02  5928   0.839E-01    0.150E-01
RMM:  10    -0.368533826917E+02    0.10249E-03   -0.18890E-03  5928   0.316E-01    0.263E-02
RMM:  11    -0.368556524719E+02   -0.22698E-02   -0.75375E-04  5928   0.186E-01    0.421E-02
RMM:  12    -0.368561597327E+02   -0.50726E-03   -0.19537E-04  5951   0.932E-02    0.527E-03
RMM:  13    -0.368564241449E+02   -0.26441E-03   -0.46261E-05  6042   0.346E-02    0.250E-03
RMM:  14    -0.368565078799E+02   -0.83735E-04   -0.10210E-05  6006   0.134E-02    0.848E-04
RMM:  15    -0.368565220620E+02   -0.14182E-04   -0.19623E-06  5943   0.759E-03    0.250E-03
RMM:  16    -0.368565352650E+02   -0.13203E-04   -0.24050E-06  5928   0.103E-02    0.153E-03
RMM:  17    -0.368565413483E+02   -0.60833E-05   -0.27771E-07  5928   0.324E-03    0.426E-04
RMM:  18    -0.368565424498E+02   -0.11015E-05   -0.21879E-08  5999   0.124E-03    0.813E-05
RMM:  19    -0.368565432067E+02   -0.75688E-06   -0.10011E-08  5142   0.415E-04    0.127E-05
RMM:  20    -0.368565432444E+02   -0.37763E-07   -0.59696E-10  4527   0.130E-04    0.223E-05
RMM:  21    -0.368565432559E+02   -0.11482E-07   -0.18850E-10  4313   0.819E-05    0.775E-06
RMM:  22    -0.368565432562E+02   -0.26751E-09   -0.20107E-11  3889   0.494E-05    0.653E-07
RMM:  23    -0.368565432566E+02   -0.47680E-09   -0.16212E-11  3589   0.383E-05    0.122E-06
RMM:  24    -0.368565432568E+02   -0.14199E-09   -0.52852E-12  3176   0.295E-05    0.430E-07
RMM:  25    -0.368565432566E+02    0.13767E-09   -0.41411E-12  2848   0.253E-05    0.401E-07
RMM:  26    -0.368565432567E+02   -0.11823E-10   -0.35330E-12  2613   0.230E-05
   1 F= -.36856543E+02 E0= -.36856543E+02  d E =-.368565E+02
       N       E                     dE             d eps       ncg     rms          rms(c)
DAV:   1    -0.368565425173E+02    0.73936E-06   -0.71597E-05  6340   0.792E-02    0.158E-03
RMM:   2    -0.368565425575E+02   -0.40162E-07   -0.11444E-06  5961   0.944E-03    0.115E-03
RMM:   3    -0.368565425170E+02    0.40447E-07   -0.19272E-07  5971   0.353E-03    0.308E-04
RMM:   4    -0.368565425152E+02    0.18294E-08   -0.13255E-08  6119   0.910E-04    0.886E-05
RMM:   5    -0.368565425137E+02    0.14352E-08   -0.92820E-10  5162   0.215E-04    0.385E-05
RMM:   6    -0.368565425137E+02   -0.22737E-11   -0.11895E-10  3818   0.938E-05
   2 F= -.36856543E+02 E0= -.36856543E+02  d E =0.742916E-06
       N       E                     dE             d eps       ncg     rms          rms(c)
DAV:   1    -0.368565432886E+02   -0.77490E-06   -0.44274E-05  6724   0.623E-02    0.125E-03
RMM:   2    -0.368565433234E+02   -0.34746E-07   -0.68882E-07  5967   0.741E-03    0.904E-04
RMM:   3    -0.368565433132E+02    0.10207E-07   -0.11789E-07  5979   0.276E-03    0.236E-04
RMM:   4    -0.368565433091E+02    0.41168E-08   -0.78267E-09  6098   0.701E-04    0.692E-05
RMM:   5    -0.368565433101E+02   -0.10016E-08   -0.55364E-10  4650   0.169E-04    0.302E-05
RMM:   6    -0.368565433104E+02   -0.35323E-09   -0.66055E-11  3763   0.781E-05    0.403E-06
RMM:   7    -0.368565433103E+02    0.77989E-10   -0.20648E-11  3730   0.529E-05
   3 F= -.36856543E+02 E0= -.36856543E+02  d E =-.796601E-06
       N       E                     dE             d eps       ncg     rms          rms(c)
DAV:   1    -0.368565433099E+02    0.54058E-09    0.52818E-09  4772   0.921E-05    0.946E-07
RMM:   2    -0.368565433104E+02   -0.48885E-09    0.26182E-12  3151   0.298E-05    0.578E-07
RMM:   3    -0.368565433104E+02   -0.20464E-10   -0.42316E-12  2895   0.304E-05    0.161E-07
RMM:   4    -0.368565433103E+02    0.67303E-10   -0.29947E-12  2634   0.282E-05    0.154E-07
RMM:   5    -0.368565433104E+02   -0.86970E-10   -0.38021E-12  2461   0.257E-05
   4 F= -.36856543E+02 E0= -.36856543E+02  d E =-.663931E-10
       N       E                     dE             d eps       ncg     rms          rms(c)
DAV:   1    -0.368565433099E+02    0.45497E-09    0.53448E-09  4588   0.501E-05    0.591E-07
RMM:   2    -0.368565433103E+02   -0.39768E-09   -0.19733E-13  1500   0.143E-05    0.366E-07
RMM:   3    -0.368565433105E+02   -0.20191E-09   -0.12410E-13  1454   0.140E-05    0.159E-08
RMM:   4    -0.368565433103E+02    0.14757E-09   -0.12677E-13  1428   0.140E-05    0.944E-09
RMM:   5    -0.368565433104E+02   -0.42405E-10   -0.95477E-13  1409   0.139E-05
   5 F= -.36856543E+02 E0= -.36856543E+02  d E =0.475211E-10
       N       E                     dE             d eps       ncg     rms          rms(c)
DAV:   1    -0.368565433098E+02    0.47703E-09    0.53664E-09  4556   0.181E-05    0.374E-07
RMM:   2    -0.368565433104E+02   -0.57526E-09   -0.63488E-14  1194   0.601E-06    0.228E-07
RMM:   3    -0.368565433105E+02   -0.76739E-10    0.21711E-14  1226   0.598E-06    0.557E-09
RMM:   4    -0.368565433105E+02   -0.21259E-10   -0.11184E-14  1099   0.597E-06    0.277E-09
RMM:   5    -0.368565433102E+02    0.35618E-09   -0.80594E-15  1164   0.592E-06    0.128E-09
RMM:   6    -0.368565433102E+02   -0.22169E-10   -0.10362E-13  1088   0.592E-06
   6 F= -.36856543E+02 E0= -.36856543E+02  d E =0.180194E-09
       N       E                     dE             d eps       ncg     rms          rms(c)
DAV:   1    -0.368565433097E+02    0.49056E-09    0.53606E-09  4652   0.272E-05    0.489E-07
RMM:   2    -0.368565433102E+02   -0.53274E-09   -0.36185E-15   641   0.762E-06    0.303E-07
RMM:   3    -0.368565433102E+02   -0.59117E-11   -0.46054E-15   522   0.752E-06    0.666E-09
RMM:   4    -0.368565433102E+02   -0.25011E-11    0.50001E-14   568   0.752E-06    0.247E-09
RMM:   5    -0.368565433102E+02   -0.59117E-11   -0.28948E-14   627   0.752E-06
   7 F= -.36856543E+02 E0= -.36856543E+02  d E =-.343334E-10
