gr                                      
           1
     4.381593    0.000000    0.000000
     0.000000    2.457034    0.000000
     0.000000    0.000000   19.584188
   C 
   4
Direct configuration=     1
   0.99945869  0.00000000  0.00000000
   0.16720798  0.50000000  0.00000000
   0.49945869  0.50000000  0.00000000
   0.66720798  0.00000000  0.00000000
Direct configuration=     2
   0.99944029 -0.00000000 -0.00000000
   0.16722638  0.50000000  0.00000000
   0.49944029  0.50000000 -0.00000000
   0.66722638 -0.00000000  0.00000000
Direct configuration=     3
   0.99945476 -0.00000000 -0.00000000
   0.16721191  0.50000000  0.00000000
   0.49945476  0.50000000 -0.00000000
   0.66721191 -0.00000000  0.00000000
Direct configuration=     4
   0.99945478  0.00000000 -0.00000000
   0.16721188  0.50000000  0.00000000
   0.49945478  0.50000000 -0.00000000
   0.66721188 -0.00000000  0.00000000
Direct configuration=     5
   0.99945477  0.00000000 -0.00000000
   0.16721190  0.50000000  0.00000000
   0.49945477  0.50000000 -0.00000000
   0.66721190 -0.00000000  0.00000000
Direct configuration=     6
   0.99945477 -0.00000000 -0.00000000
   0.16721190  0.50000000  0.00000000
   0.49945477  0.50000000 -0.00000000
   0.66721190 -0.00000000  0.00000000
Direct configuration=     7
   0.99945476 -0.00000000 -0.00000000
   0.16721190  0.50000000  0.00000000
   0.49945476  0.50000000 -0.00000000
   0.66721190 -0.00000000  0.00000000
