    4    4  400    1
  0.5270948E+02  0.4251791E-09  0.2541569E-09  0.1951079E-08  0.5000000E-15
  1.000000000000000E-004
  CAR 
 gr                                      
     16    247     12
 
  0.0000000E+00  0.0000000E+00  0.0000000E+00  0.1157407E-02
    1      -22.046866
    2      -16.641329
    3      -15.844572
    4      -10.199321
    5       -9.530456
    6       -6.024712
    7       -5.739130
    8       -4.863450
    9       -1.160747
   10        0.548988
   11        1.346398
   12        1.742032
 
  0.4166667E-01  0.0000000E+00  0.0000000E+00  0.2314815E-02
    1      -22.036470
    2      -16.845149
    3      -15.625803
    4      -10.187000
    5       -9.519998
    6       -6.048696
    7       -5.778783
    8       -4.934437
    9       -1.075216
   10        0.563070
   11        1.360615
   12        1.756432
 
  0.8333333E-01  0.0000000E+00  0.0000000E+00  0.2314815E-02
    1      -22.005287
    2      -17.217724
    3      -15.208472
    4      -10.150055
    5       -9.488674
    6       -6.119250
    7       -5.896345
    8       -5.129686
    9       -0.836509
   10        0.605311
   11        1.403264
   12        1.799631
 
  0.1250000E+00  0.0000000E+00  0.0000000E+00  0.2314815E-02
    1      -21.953337
    2      -17.613722
    3      -14.738198
    4      -10.088543
    5       -9.436634
    6       -6.232434
    7       -6.087830
    8       -5.411136
    9       -0.483226
   10        0.675707
   11        1.474334
   12        1.871632
 
  0.1666667E+00  0.0000000E+00  0.0000000E+00  0.2314815E-02
    1      -21.880655
    2      -18.005299
    3      -14.243312
    4      -10.002561
    5       -9.364133
    6       -6.382426
    7       -6.347182
    8       -5.742994
    9       -0.052057
   10        0.774246
   11        1.573805
   12        1.972428
 
  0.2083333E+00  0.0000000E+00  0.0000000E+00  0.2314815E-02
    1      -21.787292
    2      -18.384831
    3      -13.732142
    4       -9.892249
    5       -9.271540
    6       -6.666991
    7       -6.562349
    8       -6.099956
    9        0.430433
   10        0.900912
   11        1.701649
   12        2.102020
 
  0.2500000E+00  0.0000000E+00  0.0000000E+00  0.2314815E-02
    1      -21.673310
    2      -18.749290
    3      -13.208640
    4       -9.757794
    5       -9.159349
    6       -7.039206
    7       -6.765047
    8       -6.465811
    9        0.946405
   10        1.055679
   11        1.857822
   12        2.260405
 
  0.2916667E+00  0.0000000E+00  0.0000000E+00  0.2314815E-02
    1      -21.538791
    2      -19.097131
    3      -12.675530
    4       -9.599438
    5       -9.028198
    6       -7.455710
    7       -6.983647
    8       -6.830321
    9        1.238512
   10        1.483600
   11        2.042266
   12        2.447576
 
  0.3333333E+00  0.0000000E+00  0.0000000E+00  0.2314815E-02
    1      -21.383831
    2      -19.427415
    3      -12.135205
    4       -9.417487
    5       -8.878888
    6       -7.908738
    7       -7.211903
    8       -7.186880
    9        1.449365
   10        2.032934
   11        2.254889
   12        2.663521
 
  0.3750000E+00  0.0000000E+00  0.0000000E+00  0.2314815E-02
    1      -21.208546
    2      -19.739498
    3      -11.590081
    4       -9.212322
    5       -8.712415
    6       -8.391126
    7       -7.531070
    8       -7.444344
    9        1.688171
   10        2.495544
   11        2.586804
   12        2.908220
 
  0.4166667E+00  0.0000000E+00  0.0000000E+00  0.2314815E-02
    1      -21.013070
    2      -20.032899
    3      -11.042768
    4       -8.984416
    5       -8.896427
    6       -8.530003
    7       -7.859836
    8       -7.676298
    9        1.954834
   10        2.763946
   11        3.136591
   12        3.181640
 
  0.4583333E+00  0.0000000E+00  0.0000000E+00  0.2314815E-02
    1      -20.797563
    2      -20.307239
    3      -10.496183
    4       -9.418933
    5       -8.734362
    6       -8.333151
    7       -8.170986
    8       -7.903834
    9        2.249208
   10        2.919657
   11        3.059357
   12        3.487192
 
  0.5000000E+00  0.0000000E+00  0.0000000E+00  0.1157407E-02
    1      -20.562213
    2      -20.562213
    3       -9.953639
    4       -9.953639
    5       -8.462903
    6       -8.462903
    7       -8.123686
    8       -8.123686
    9        2.571023
   10        2.571023
   11        3.378357
   12        3.378357
 
  0.0000000E+00  0.2777778E-01  0.0000000E+00  0.2314815E-02
    1      -22.033982
    2      -16.630191
    3      -15.834453
    4      -10.184051
    5       -9.587980
    6       -6.077757
    7       -5.771625
    8       -4.847869
    9       -1.167328
   10        0.566402
   11        1.364072
   12        1.759932
 
  0.4166667E-01  0.2777778E-01  0.0000000E+00  0.4629630E-02
    1      -22.023586
    2      -16.833934
    3      -15.615824
    4      -10.171734
    5       -9.577488
    6       -6.104520
    7       -5.807754
    8       -4.919042
    9       -1.081744
   10        0.580485
   11        1.378288
   12        1.774331
 
  0.8333333E-01  0.2777778E-01  0.0000000E+00  0.4629630E-02
    1      -21.992407
    2      -17.206321
    3      -15.198876
    4      -10.134803
    5       -9.546060
    6       -6.184190
    7       -5.914105
    8       -5.114703
    9       -0.843029
   10        0.622732
   11        1.420934
   12        1.817529
 
  0.1250000E+00  0.2777778E-01  0.0000000E+00  0.4629630E-02
    1      -21.940465
    2      -17.602116
    3      -14.729139
    4      -10.073314
    5       -9.493838
    6       -6.316399
    7       -6.083469
    8       -5.396554
    9       -0.490018
   10        0.693136
   11        1.491998
   12        1.889529
 
  0.1666667E+00  0.2777778E-01  0.0000000E+00  0.4629630E-02
    1      -21.867793
    2      -17.993508
    3      -14.234926
    4       -9.987364
    5       -9.421068
    6       -6.506487
    7       -6.299073
    8       -5.728691
    9       -0.059514
   10        0.791686
   11        1.591460
   12        1.990331
 
  0.2083333E+00  0.2777778E-01  0.0000000E+00  0.4629630E-02
    1      -21.774444
    2      -18.372876
    3      -13.724580
    4       -9.877093
    5       -9.328103
    6       -6.769226
    7       -6.532277
    8       -6.085800
    9        0.421909
   10        0.918365
   11        1.719293
   12        2.119924
 
  0.2500000E+00  0.2777778E-01  0.0000000E+00  0.4629630E-02
    1      -21.660479
    2      -18.737193
    3      -13.202085
    4       -9.742690
    5       -9.215414
    6       -7.106987
    7       -6.765798
    8       -6.451701
    9        0.936450
   10        1.073146
   11        1.875454
   12        2.278313
 
  0.2916667E+00  0.2777778E-01  0.0000000E+00  0.4629630E-02
    1      -21.525982
    2      -19.084911
    3      -12.670202
    4       -9.584394
    5       -9.083611
    6       -7.503103
    7       -7.001495
    8       -6.816188
    9        1.255994
   10        1.471896
   11        2.059884
   12        2.465488
 
  0.3333333E+00  0.2777778E-01  0.0000000E+00  0.4629630E-02
    1      -21.371048
    2      -19.415088
    3      -12.131381
    4       -9.402513
    5       -8.933455
    6       -7.942634
    7       -7.240371
    8       -7.172680
    9        1.466863
   10        2.019227
   11        2.272494
   12        2.681445
 
  0.3750000E+00  0.2777778E-01  0.0000000E+00  0.4629630E-02
    1      -21.195794
    2      -19.727079
    3      -11.588106
    4       -9.197427
    5       -8.765891
    6       -8.415301
    7       -7.516780
    8       -7.480075
    9        1.705688
   10        2.513139
   11        2.570960
   12        2.926159
 
  0.4166667E+00  0.2777778E-01  0.0000000E+00  0.4629630E-02
    1      -21.000354
    2      -20.020402
    3      -11.043076
    4       -8.969609
    5       -8.913265
    6       -8.582077
    7       -7.845442
    8       -7.717293
    9        1.972377
   10        2.781544
   11        3.118859
   12        3.199568
 
  0.4583333E+00  0.2777778E-01  0.0000000E+00  0.4629630E-02
    1      -20.784889
    2      -20.294674
    3      -10.499328
    4       -9.430090
    5       -8.719650
    6       -8.383422
    7       -8.156484
    8       -7.948773
    9        2.266789
   10        2.937493
   11        3.076989
   12        3.502287
 
  0.5000000E+00  0.2777778E-01  0.0000000E+00  0.2314815E-02
    1      -20.549589
    2      -20.549589
    3       -9.960331
    4       -9.960331
    5       -8.448294
    6       -8.448294
    7       -8.171635
    8       -8.171635
    9        2.588678
   10        2.588678
   11        3.396043
   12        3.396295
 
  0.0000000E+00  0.5555556E-01  0.0000000E+00  0.2314815E-02
    1      -21.995337
    2      -16.596779
    3      -15.804315
    4      -10.138271
    5       -9.755777
    6       -6.232774
    7       -5.868022
    8       -4.801146
    9       -1.187839
   10        0.618653
   11        1.417087
   12        1.813617
 
  0.4166667E-01  0.5555556E-01  0.0000000E+00  0.4629630E-02
    1      -21.984946
    2      -16.800317
    3      -15.586091
    4      -10.125968
    5       -9.745175
    6       -6.265667
    7       -5.895858
    8       -4.872895
    9       -1.102088
   10        0.632740
   11        1.431300
   12        1.828020
 
  0.8333333E-01  0.5555556E-01  0.0000000E+00  0.4629630E-02
    1      -21.953780
    2      -17.172147
    3      -15.170305
    4      -10.089079
    5       -9.713410
    6       -6.362110
    7       -5.979327
    8       -5.069826
    9       -0.863329
   10        0.674999
   11        1.473934
   12        1.871222
 
  0.1250000E+00  0.5555556E-01  0.0000000E+00  0.4629630E-02
    1      -21.901859
    2      -17.567335
    3      -14.702215
    4      -10.027659
    5       -9.660606
    6       -6.516872
    7       -6.117074
    8       -5.352908
    9       -0.511131
   10        0.745424
   11        1.544979
   12        1.943226
 
  0.1666667E+00  0.5555556E-01  0.0000000E+00  0.4629630E-02
    1      -21.829220
    2      -17.958167
    3      -14.210081
    4       -9.941807
    5       -9.586970
    6       -6.724777
    7       -6.304114
    8       -5.685891
    9       -0.082648
   10        0.844002
   11        1.644416
   12        2.044031
 
  0.2083333E+00  0.5555556E-01  0.0000000E+00  0.4629630E-02
    1      -21.735912
    2      -18.337040
    3      -13.702297
    4       -9.831663
    5       -9.492804
    6       -6.983036
    7       -6.530561
    8       -6.043443
    9        0.395536
   10        0.970714
   11        1.772215
   12        2.173634
 
  0.2500000E+00  0.5555556E-01  0.0000000E+00  0.4629630E-02
    1      -21.622000
    2      -18.700926
    3      -13.182940
    4       -9.697415
    5       -9.378504
    6       -7.291324
    7       -6.782733
    8       -6.409477
    9        0.905728
   10        1.125532
   11        1.928336
   12        2.332033
 
  0.2916667E+00  0.5555556E-01  0.0000000E+00  0.4629630E-02
    1      -21.487568
    2      -19.048272
    3      -12.654910
    4       -9.539304
    5       -9.244578
    6       -7.649122
    7       -7.046888
    8       -6.773889
    9        1.308421
   10        1.435864
   11        2.112720
   12        2.519219
 
  0.3333333E+00  0.5555556E-01  0.0000000E+00  0.4629630E-02
    1      -21.332712
    2      -19.378128
    3      -12.120836
    4       -9.357635
    5       -9.091655
    6       -8.052805
    7       -7.312958
    8       -7.130174
    9        1.519334
   10        1.977104
   11        2.325285
   12        2.735187
 
  0.3750000E+00  0.5555556E-01  0.0000000E+00  0.4629630E-02
    1      -21.157550
    2      -19.689843
    3      -11.583438
    4       -9.152790
    5       -8.920499
    6       -8.495676
    7       -7.575046
    8       -7.473993
    9        1.758208
   10        2.522280
   11        2.565897
   12        2.979918
 
  0.4166667E+00  0.5555556E-01  0.0000000E+00  0.4629630E-02
    1      -20.962220
    2      -19.982928
    3      -11.045727
    4       -8.969922
    5       -8.925239
    6       -8.732030
    7       -7.829722
    8       -7.802336
    9        2.024958
   10        2.834305
   11        3.064279
   12        3.254361
 
  0.4583333E+00  0.5555556E-01  0.0000000E+00  0.4629630E-02
    1      -20.746884
    2      -20.256996
    3      -10.511146
    4       -9.468106
    5       -8.675573
    6       -8.527336
    7       -8.113048
    8       -8.074591
    9        2.319462
   10        2.990732
   11        3.129856
   12        3.555573
 
  0.5000000E+00  0.5555556E-01  0.0000000E+00  0.2314815E-02
    1      -20.511735
    2      -20.511735
    3       -9.983701
    4       -9.983701
    5       -8.404530
    6       -8.404530
    7       -8.307696
    8       -8.307696
    9        2.641520
   10        2.641520
   11        3.449092
   12        3.449131
 
  0.0000000E+00  0.8333333E-01  0.0000000E+00  0.2314815E-02
    1      -21.930971
    2      -16.541107
    3      -15.754869
    4      -10.062078
    5      -10.020790
    6       -6.478613
    7       -6.025183
    8       -4.723339
    9       -1.224570
   10        0.705769
   11        1.505422
   12        1.903106
 
  0.4166667E-01  0.8333333E-01  0.0000000E+00  0.4629630E-02
    1      -21.920587
    2      -16.744383
    3      -15.537264
    4      -10.049799
    5      -10.009979
    6       -6.517945
    7       -6.043196
    8       -4.796109
    9       -1.138494
   10        0.719861
   11        1.519628
   12        1.917508
 
  0.8333333E-01  0.8333333E-01  0.0000000E+00  0.4629630E-02
    1      -21.889443
    2      -17.115320
    3      -15.123459
    4      -10.012981
    5       -9.977576
    6       -6.629646
    7       -6.101792
    8       -4.995278
    9       -0.899590
   10        0.762132
   11        1.562241
   12        1.960714
 
  0.1250000E+00  0.8333333E-01  0.0000000E+00  0.4629630E-02
    1      -21.837560
    2      -17.509492
    3      -14.658255
    4       -9.951681
    5       -9.923660
    6       -6.800631
    7       -6.208923
    8       -5.280502
    9       -0.548739
   10        0.832579
   11        1.633252
   12        2.032723
 
  0.1666667E+00  0.8333333E-01  0.0000000E+00  0.4629630E-02
    1      -21.764974
    2      -17.899378
    3      -14.169810
    4       -9.865997
    5       -9.848369
    6       -7.018912
    7       -6.368323
    8       -5.614936
    9       -0.123690
   10        0.931188
   11        1.732639
   12        2.133534
 
  0.2083333E+00  0.8333333E-01  0.0000000E+00  0.4629630E-02
    1      -21.671735
    2      -18.277413
    3      -13.666616
    4       -9.756069
    5       -9.751889
    6       -7.276275
    7       -6.577398
    8       -5.973231
    9        0.348971
   10        1.057940
   11        1.860375
   12        2.263147
 
  0.2500000E+00  0.8333333E-01  0.0000000E+00  0.4629630E-02
    1      -21.557913
    2      -18.640571
    3      -13.152948
    4       -9.634462
    5       -9.622087
    6       -7.568423
    7       -6.827921
    8       -6.339472
    9        0.851757
   10        1.212805
   11        2.016420
   12        2.421557
 
  0.2916667E+00  0.8333333E-01  0.0000000E+00  0.4629630E-02
    1      -21.423589
    2      -18.987287
    3      -12.631982
    4       -9.496378
    5       -9.464292
    6       -7.894481
    7       -7.107456
    8       -6.703733
    9        1.372857
   10        1.395745
   11        2.200717
   12        2.608760
 
  0.3333333E+00  0.8333333E-01  0.0000000E+00  0.4629630E-02
    1      -21.268864
    2      -19.316600
    3      -12.106725
    4       -9.337965
    5       -9.282989
    6       -8.255711
    7       -7.401514
    8       -7.059647
    9        1.606712
   10        1.903720
   11        2.413189
   12        2.824747
 
  0.3750000E+00  0.8333333E-01  0.0000000E+00  0.4629630E-02
    1      -21.093858
    2      -19.627848
    3      -11.580400
    4       -9.159586
    5       -9.078557
    6       -8.653168
    7       -7.696551
    8       -7.402968
    9        1.845645
   10        2.437598
   11        2.653722
   12        3.069506
 
  0.4166667E+00  0.8333333E-01  0.0000000E+00  0.4629630E-02
    1      -20.898712
    2      -19.920531
    3      -11.056682
    4       -9.085430
    5       -8.961614
    6       -8.851468
    7       -7.982642
    8       -7.730754
    9        2.112465
   10        2.922110
   11        2.968505
   12        3.343021
 
  0.4583333E+00  0.8333333E-01  0.0000000E+00  0.4629630E-02
    1      -20.683593
    2      -20.194255
    3      -10.539879
    4       -9.548107
    5       -8.744428
    6       -8.602307
    7       -8.254132
    8       -8.040890
    9        2.407066
   10        3.078869
   11        3.217837
   12        3.487564
 
  0.5000000E+00  0.8333333E-01  0.0000000E+00  0.2314815E-02
    1      -20.448697
    2      -20.448697
    3      -10.035062
    4      -10.035062
    5       -8.508422
    6       -8.508422
    7       -8.331805
    8       -8.331805
    9        2.729290
   10        2.729290
   11        3.537472
   12        3.537770
 
  0.0000000E+00  0.1111111E+00  0.0000000E+00  0.2314815E-02
    1      -21.840947
    2      -16.463196
    3      -15.687461
    4      -10.364710
    5       -9.955633
    6       -6.799961
    7       -6.238264
    8       -4.614544
    9       -1.281229
   10        0.827787
   11        1.629039
   12        2.028403
 
  0.4166667E-01  0.1111111E+00  0.0000000E+00  0.4629630E-02
    1      -21.830573
    2      -16.666289
    3      -15.470600
    4      -10.353546
    5       -9.943389
    6       -6.844923
    7       -6.246313
    8       -4.688894
    9       -1.194581
   10        0.841879
   11        1.643234
   12        2.042803
 
  0.8333333E-01  0.1111111E+00  0.0000000E+00  0.4629630E-02
    1      -21.799461
    2      -17.036050
    3      -15.059683
    4      -10.320055
    5       -9.906675
    6       -6.969225
    7       -6.279921
    8       -4.891475
    9       -0.955287
   10        0.884154
   11        1.685814
   12        2.086009
 
  0.1250000E+00  0.1111111E+00  0.0000000E+00  0.4629630E-02
    1      -21.747630
    2      -17.428792
    3      -14.598871
    4      -10.264240
    5       -9.845550
    6       -7.152814
    7       -6.355678
    8       -5.179901
    9       -0.606270
   10        0.954610
   11        1.756768
   12        2.158021
 
  0.1666667E+00  0.1111111E+00  0.0000000E+00  0.4629630E-02
    1      -21.675119
    2      -17.817326
    3      -14.116156
    4      -10.186095
    5       -9.760111
    6       -7.379249
    7       -6.484061
    8       -5.516450
    9       -0.186136
   10        1.053237
   11        1.856074
   12        2.258837
 
  0.2083333E+00  0.1111111E+00  0.0000000E+00  0.4629630E-02
    1      -21.581980
    2      -18.194159
    3      -13.620215
    4      -10.085590
    5       -9.650499
    6       -7.637628
    7       -6.667530
    8       -5.875789
    9        0.278574
   10        1.180017
   11        1.983704
   12        2.388457
 
  0.2500000E+00  0.1111111E+00  0.0000000E+00  0.4629630E-02
    1      -21.468284
    2      -18.556270
    3      -13.115691
    4       -9.962651
    5       -9.516906
    6       -7.921327
    7       -6.902172
    8       -6.242281
    9        0.770719
   10        1.334921
   11        2.139615
   12        2.546879
 
  0.2916667E+00  0.1111111E+00  0.0000000E+00  0.4629630E-02
    1      -21.334113
    2      -18.902082
    3      -12.606294
    4       -9.817118
    5       -9.359573
    6       -8.227146
    7       -7.179259
    8       -6.606273
    9        1.278877
   10        1.517906
   11        2.323754
   12        2.734097
 
  0.3333333E+00  0.1111111E+00  0.0000000E+00  0.4629630E-02
    1      -21.179573
    2      -19.230618
    3      -12.095767
    4       -9.648704
    5       -9.178805
    6       -8.554916
    7       -7.486491
    8       -6.961602
    9        1.728922
   10        1.794895
   11        2.536048
   12        2.950104
 
  0.3750000E+00  0.1111111E+00  0.0000000E+00  0.4629630E-02
    1      -21.004788
    2      -19.541197
    3      -11.588311
    4       -9.456935
    5       -8.974982
    6       -8.906989
    7       -7.809290
    8       -7.304164
    9        1.967905
   10        2.312500
   11        2.776400
   12        3.194890
 
  0.4166667E+00  0.1111111E+00  0.0000000E+00  0.4629630E-02
    1      -20.809903
    2      -19.833307
    3      -11.088841
    4       -9.286919
    5       -9.241125
    6       -8.748572
    7       -8.132681
    8       -7.631109
    9        2.234777
   10        2.826497
   11        3.044666
   12        3.468483
 
  0.4583333E+00  0.1111111E+00  0.0000000E+00  0.4629630E-02
    1      -20.595093
    2      -20.106538
    3      -10.603066
    4       -9.697199
    5       -9.000464
    6       -8.500155
    7       -8.443880
    8       -7.940382
    9        2.529442
   10        3.201559
   11        3.332247
   12        3.340569
 
  0.5000000E+00  0.1111111E+00  0.0000000E+00  0.2314815E-02
    1      -20.360559
    2      -20.360559
    3      -10.137227
    4      -10.137227
    5       -8.734439
    6       -8.734439
    7       -8.230455
    8       -8.230455
    9        2.851767
   10        2.851767
   11        3.660964
   12        3.661302
 
  0.0000000E+00  0.1388889E+00  0.0000000E+00  0.2314815E-02
    1      -21.725358
    2      -16.363077
    3      -15.604384
    4      -10.767047
    5       -9.819171
    6       -7.180367
    7       -6.501190
    8       -4.474900
    9       -1.362725
   10        0.984732
   11        1.787883
   12        2.189510
 
  0.4166667E-01  0.1388889E+00  0.0000000E+00  0.4629630E-02
    1      -21.714998
    2      -16.566300
    3      -15.388246
    4      -10.755295
    5       -9.806974
    6       -7.230149
    7       -6.499446
    8       -4.551583
    9       -1.275086
   10        0.998819
   11        1.802060
   12        2.203910
 
  0.8333333E-01  0.1388889E+00  0.0000000E+00  0.4629630E-02
    1      -21.683925
    2      -16.934689
    3      -14.981326
    4      -10.719990
    5       -9.770402
    6       -7.365122
    7       -6.508062
    8       -4.759103
    9       -1.034872
   10        1.041082
   11        1.844587
   12        2.247114
 
  0.1250000E+00  0.1388889E+00  0.0000000E+00  0.4629630E-02
    1      -21.632162
    2      -17.325567
    3      -14.526945
    4      -10.660981
    5       -9.709513
    6       -7.559425
    7       -6.551101
    8       -5.052020
    9       -0.688039
   10        1.111523
   11        1.915450
   12        2.319123
 
  0.1666667E+00  0.1388889E+00  0.0000000E+00  0.4629630E-02
    1      -21.559751
    2      -17.712305
    3      -14.052855
    4      -10.577980
    5       -9.624407
    6       -7.793293
    7       -6.644759
    8       -5.391431
    9       -0.274333
   10        1.210140
   11        2.014625
   12        2.419938
 
  0.2083333E+00  0.1388889E+00  0.0000000E+00  0.4629630E-02
    1      -21.466742
    2      -18.087533
    3      -13.568102
    4      -10.470524
    5       -9.515227
    6       -8.054156
    7       -6.795796
    8       -5.752103
    9        0.179883
   10        1.336920
   11        2.142077
   12        2.549561
 
  0.2500000E+00  0.1388889E+00  0.0000000E+00  0.4629630E-02
    1      -21.353208
    2      -18.448246
    3      -13.078035
    4      -10.337891
    5       -9.382163
    6       -8.334124
    7       -7.003954
    8       -6.118832
    9        0.658026
   10        1.491836
   11        2.297759
   12        2.707990
 
  0.2916667E+00  0.1388889E+00  0.0000000E+00  0.4629630E-02
    1      -21.219238
    2      -18.792852
    3      -12.587391
    4      -10.179016
    5       -9.225461
    6       -8.628484
    7       -7.263826
    8       -6.482360
    9        1.149261
   10        1.674845
   11        2.481606
   12        2.895219
 
  0.3333333E+00  0.1388889E+00  0.0000000E+00  0.4629630E-02
    1      -21.064941
    2      -19.120353
    3      -12.101285
    4       -9.992394
    5       -9.045425
    6       -8.935112
    7       -7.566187
    8       -6.836810
    9        1.645991
   10        1.885889
   11        2.693536
   12        3.111243
 
  0.3750000E+00  0.1388889E+00  0.0000000E+00  0.4629630E-02
    1      -20.890444
    2      -19.430045
    3      -11.625575
    4       -9.776089
    5       -9.254335
    6       -8.842435
    7       -7.898979
    8       -7.178272
    9        2.124899
   10        2.142490
   11        2.933434
   12        3.356051
 
  0.4166667E+00  0.1388889E+00  0.0000000E+00  0.4629630E-02
    1      -20.695903
    2      -19.721394
    3      -11.166765
    4       -9.588888
    5       -9.528066
    6       -8.616959
    7       -8.248095
    8       -7.504021
    9        2.391793
   10        2.634160
   11        3.201142
   12        3.629632
 
  0.4583333E+00  0.1388889E+00  0.0000000E+00  0.4629630E-02
    1      -20.481497
    2      -19.993976
    3      -10.731159
    4       -9.943448
    5       -9.247204
    6       -8.598339
    7       -8.369569
    8       -7.812084
    9        2.686473
   10        3.117068
   11        3.358659
   12        3.496326
 
  0.5000000E+00  0.1388889E+00  0.0000000E+00  0.2314815E-02
    1      -20.247440
    2      -20.247440
    3      -10.323151
    4      -10.323151
    5       -8.935170
    6       -8.935170
    7       -8.100979
    8       -8.100979
    9        3.008816
   10        3.008816
   11        3.587071
   12        3.587147
 
  0.0000000E+00  0.1666667E+00  0.0000000E+00  0.2314815E-02
    1      -21.584325
    2      -16.240790
    3      -15.509482
    4      -11.206935
    5       -9.653005
    6       -7.604411
    7       -6.807157
    8       -4.304590
    9       -1.474766
   10        1.176610
   11        1.981874
   12        2.386436
 
  0.4166667E-01  0.1666667E+00  0.0000000E+00  0.4629630E-02
    1      -21.573982
    2      -16.444860
    3      -15.293826
    4      -11.194186
    5       -9.640869
    6       -7.658453
    7       -6.795839
    8       -4.384708
    9       -1.385381
   10        1.190686
   11        1.996024
   12        2.400834
 
  0.8333333E-01  0.1666667E+00  0.0000000E+00  0.4629630E-02
    1      -21.542961
    2      -16.811800
    3      -14.892449
    4      -11.155789
    5       -9.604482
    6       -7.802896
    7       -6.779559
    8       -4.599276
    9       -1.143170
   10        1.232919
   11        2.038465
   12        2.444032
 
  0.1250000E+00  0.1666667E+00  0.0000000E+00  0.4629630E-02
    1      -21.491284
    2      -17.200341
    3      -14.447611
    4      -11.091273
    5       -9.543903
    6       -8.006904
    7       -6.788843
    8       -4.898317
    9       -0.798574
   10        1.303315
   11        2.109180
   12        2.516032
 
  0.1666667E+00  0.1666667E+00  0.0000000E+00  0.4629630E-02
    1      -21.418994
    2      -17.584766
    3      -13.986776
    4      -10.999778
    5       -9.459234
    6       -8.248011
    7       -6.844840
    8       -5.241424
    9       -0.392740
   10        1.401883
   11        2.208135
   12        2.616838
 
  0.2083333E+00  0.1666667E+00  0.0000000E+00  0.4629630E-02
    1      -21.326146
    2      -17.957919
    3      -13.519753
    4      -10.879939
    5       -9.350619
    6       -8.512471
    7       -6.958146
    8       -5.603665
    9        0.048425
   10        1.528620
   11        2.335279
   12        2.746454
 
  0.2500000E+00  0.1666667E+00  0.0000000E+00  0.4629630E-02
    1      -21.212816
    2      -18.316826
    3      -13.053249
    4      -10.729743
    5       -9.218252
    6       -8.791701
    7       -7.131819
    8       -5.970505
    9        0.509237
   10        1.683506
   11        2.490538
   12        2.904880
 
  0.2916667E+00  0.1666667E+00  0.0000000E+00  0.4629630E-02
    1      -21.079097
    2      -18.659881
    3      -12.593838
    4      -10.546441
    5       -9.080228
    6       -9.062380
    7       -7.363402
    8       -6.333242
    9        0.979734
   10        1.866499
   11        2.673801
   12        3.092114
 
  0.3333333E+00  0.1666667E+00  0.0000000E+00  0.4629630E-02
    1      -20.925102
    2      -18.986054
    3      -12.148635
    4      -10.326732
    5       -9.374779
    6       -8.883312
    7       -7.646331
    8       -6.686389
    9        1.453106
   10        2.077537
   11        2.884882
   12        3.308148
 
  0.3750000E+00  0.1666667E+00  0.0000000E+00  0.4629630E-02
    1      -20.750968
    2      -19.294611
    3      -11.724777
    4      -10.067652
    5       -9.673976
    6       -8.681428
    7       -7.971074
    8       -7.026289
    9        1.924354
   10        2.316542
   11        3.123402
   12        3.552976
 
  0.4166667E+00  0.1666667E+00  0.0000000E+00  0.4629630E-02
    1      -20.556860
    2      -19.584992
    3      -11.327699
    4       -9.978346
    5       -9.768537
    6       -8.457193
    7       -8.325980
    8       -7.350378
    9        2.389531
   10        2.583421
   11        3.388004
   12        3.826601
 
  0.4583333E+00  0.1666667E+00  0.0000000E+00  0.4629630E-02
    1      -20.342965
    2      -19.856748
    3      -10.958916
    4      -10.290506
    5       -9.433412
    6       -8.697778
    7       -8.211177
    8       -7.656781
    9        2.845188
   10        2.878067
   11        3.550116
   12        3.640236
 
  0.5000000E+00  0.1666667E+00  0.0000000E+00  0.2314815E-02
    1      -20.109508
    2      -20.109508
    3      -10.615236
    4      -10.615236
    5       -9.071933
    6       -9.071933
    7       -7.944081
    8       -7.944081
    9        3.200351
   10        3.200351
   11        3.287056
   12        3.287085
 