       N       E                     dE             d eps       ncg     rms          rms(c)
DAV:   1     0.184899130853E+03    0.18490E+03   -0.10569E+04  5928   0.274E+03
DAV:   2    -0.952036841141E+01   -0.19442E+03   -0.17423E+03 10472   0.256E+02
DAV:   3    -0.380161052438E+02   -0.28496E+02   -0.27926E+02  7384   0.119E+02    0.703E+00
RMM:   4    -0.375301436570E+02    0.48596E+00   -0.95048E+00  5928   0.265E+01    0.408E+00
RMM:   5    -0.368374836410E+02    0.69266E+00   -0.26099E+00  5934   0.110E+01    0.693E-01
RMM:   6    -0.368396493021E+02   -0.21657E-02   -0.84288E-02  6408   0.203E+00    0.495E-01
RMM:   7    -0.368309568502E+02    0.86925E-02   -0.31138E-02  5947   0.153E+00    0.320E-01
RMM:   8    -0.368262747698E+02    0.46821E-02   -0.61130E-03  5929   0.520E-01    0.133E-01
RMM:   9    -0.368261607617E+02    0.11401E-03   -0.19070E-02  5928   0.817E-01    0.150E-01
RMM:  10    -0.368260439551E+02    0.11681E-03   -0.19921E-03  5928   0.322E-01    0.260E-02
RMM:  11    -0.368282695593E+02   -0.22256E-02   -0.71500E-04  5929   0.182E-01    0.430E-02
RMM:  12    -0.368287557272E+02   -0.48617E-03   -0.19644E-04  5939   0.935E-02    0.583E-03
RMM:  13    -0.368290279901E+02   -0.27226E-03   -0.53528E-05  6019   0.388E-02    0.329E-03
RMM:  14    -0.368291091646E+02   -0.81174E-04   -0.10252E-05  5970   0.151E-02    0.101E-03
RMM:  15    -0.368291222083E+02   -0.13044E-04   -0.19487E-06  5946   0.775E-03    0.222E-03
RMM:  16    -0.368291364513E+02   -0.14243E-04   -0.17919E-06  5928   0.871E-03    0.117E-03
RMM:  17    -0.368291425350E+02   -0.60837E-05   -0.11252E-07  6044   0.206E-03    0.727E-04
RMM:  18    -0.368291436536E+02   -0.11186E-05   -0.59674E-08  5929   0.182E-03    0.795E-05
RMM:  19    -0.368291443410E+02   -0.68742E-06   -0.93816E-09  5821   0.447E-04    0.139E-05
RMM:  20    -0.368291443882E+02   -0.47174E-07   -0.79582E-10  4468   0.141E-04    0.205E-05
RMM:  21    -0.368291443998E+02   -0.11628E-07   -0.17808E-10  4304   0.809E-05    0.794E-06
RMM:  22    -0.368291443997E+02    0.12597E-09   -0.16271E-11  3889   0.486E-05    0.101E-06
RMM:  23    -0.368291444003E+02   -0.59833E-09   -0.17877E-11  3583   0.384E-05    0.191E-06
RMM:  24    -0.368291444000E+02    0.29627E-09   -0.49280E-12  3103   0.287E-05    0.520E-07
RMM:  25    -0.368291444003E+02   -0.31491E-09   -0.52224E-12  2779   0.250E-05    0.181E-07
RMM:  26    -0.368291444001E+02    0.17030E-09   -0.39016E-12  2590   0.226E-05    0.251E-07
RMM:  27    -0.368291444000E+02    0.14870E-09   -0.76063E-13  2453   0.209E-05    0.110E-07
RMM:  28    -0.368291444001E+02   -0.11346E-09   -0.20593E-12  2304   0.199E-05    0.121E-07
RMM:  29    -0.368291444002E+02   -0.54797E-10   -0.13405E-14  2200   0.190E-05
   1 F= -.36829144E+02 E0= -.36829144E+02  d E =-.368291E+02
       N       E                     dE             d eps       ncg     rms          rms(c)
DAV:   1    -0.368291443379E+02    0.62155E-07   -0.54312E-06  6232   0.220E-02    0.442E-04
RMM:   2    -0.368291443412E+02   -0.32763E-08   -0.92081E-08  5954   0.265E-03    0.326E-04
RMM:   3    -0.368291443341E+02    0.71159E-08   -0.14362E-08  5982   0.971E-04    0.799E-05
RMM:   4    -0.368291443345E+02   -0.40700E-09   -0.85823E-10  5690   0.233E-04    0.236E-05
RMM:   5    -0.368291443339E+02    0.62846E-09   -0.41993E-11  3779   0.682E-05    0.927E-06
RMM:   6    -0.368291443343E+02   -0.44156E-09   -0.16508E-11  3445   0.460E-05    0.202E-06
RMM:   7    -0.368291443343E+02    0.74920E-10   -0.80833E-12  3172   0.357E-05
   2 F= -.36829144E+02 E0= -.36829144E+02  d E =0.659041E-07
       N       E                     dE             d eps       ncg     rms          rms(c)
DAV:   1    -0.368291443968E+02   -0.62507E-07   -0.34548E-06  6608   0.175E-02    0.354E-04
RMM:   2    -0.368291444014E+02   -0.45181E-08   -0.55793E-08  5951   0.210E-03    0.259E-04
RMM:   3    -0.368291444032E+02   -0.18450E-08   -0.88830E-09  5975   0.765E-04    0.599E-05
RMM:   4    -0.368291444025E+02    0.71259E-09   -0.49568E-10  5023   0.182E-04    0.187E-05
RMM:   5    -0.368291444033E+02   -0.76921E-09   -0.30924E-11  3718   0.643E-05    0.822E-06
RMM:   6    -0.368291444032E+02    0.36266E-10   -0.17970E-11  3390   0.437E-05
   3 F= -.36829144E+02 E0= -.36829144E+02  d E =-.689649E-07
