gr                                      
           1
     4.251791    0.000000    0.000000
     0.000000    2.541569    0.000000
     0.000000    0.000000   19.510792
   C 
   4
Direct configuration=     1
   0.00074775  0.00000000  0.00000000
   0.16591892  0.50000000  0.00000000
   0.50074775  0.50000000  0.00000000
   0.66591892  0.00000000  0.00000000
Direct configuration=     2
   0.00075296  0.00000000 -0.00000000
   0.16591370  0.50000000  0.00000000
   0.50075296  0.50000000 -0.00000000
   0.66591370 -0.00000000  0.00000000
Direct configuration=     3
   0.00074880  0.00000000 -0.00000000
   0.16591787  0.50000000  0.00000000
   0.50074880  0.50000000 -0.00000000
   0.66591787 -0.00000000  0.00000000
