    4    4  400    1
  0.5270948E+02  0.4258429E-09  0.2517141E-09  0.1966943E-08  0.5000000E-15
  1.000000000000000E-004
  CAR 
 gr                                      
     16    247     12
 
  0.0000000E+00  0.0000000E+00  0.0000000E+00  0.1157407E-02
    1      -22.114422
    2      -16.764556
    3      -15.884367
    4      -10.251433
    5       -9.418282
    6       -5.956616
    7       -5.747098
    8       -4.943938
    9       -1.127578
   10        0.540567
   11        1.339024
   12        1.729422
 
  0.4166667E-01  0.0000000E+00  0.0000000E+00  0.2314815E-02
    1      -22.104072
    2      -16.954164
    3      -15.679695
    4      -10.239134
    5       -9.407912
    6       -5.980125
    7       -5.787781
    8       -5.013354
    9       -1.043124
   10        0.554595
   11        1.353202
   12        1.743777
 
  0.8333333E-01  0.0000000E+00  0.0000000E+00  0.2314815E-02
    1      -22.073024
    2      -17.315092
    3      -15.273665
    4      -10.202256
    5       -9.376852
    6       -6.049303
    7       -5.908318
    8       -5.204891
    9       -0.806646
   10        0.596678
   11        1.395730
   12        1.786847
 
  0.1250000E+00  0.0000000E+00  0.0000000E+00  0.2314815E-02
    1      -22.021300
    2      -17.705027
    3      -14.808869
    4      -10.140857
    5       -9.325252
    6       -6.160351
    7       -6.104407
    8       -5.482189
    9       -0.455038
   10        0.666811
   11        1.466598
   12        1.858619
 
  0.1666667E+00  0.0000000E+00  0.0000000E+00  0.2314815E-02
    1      -21.948932
    2      -18.092816
    3      -14.316929
    4      -10.055032
    5       -9.253371
    6       -6.369549
    7       -6.307638
    8       -5.810404
    9       -0.024033
   10        0.764989
   11        1.565786
   12        1.959107
 
  0.2083333E+00  0.0000000E+00  0.0000000E+00  0.2314815E-02
    1      -21.855972
    2      -18.469605
    3      -13.807382
    4       -9.944923
    5       -9.161581
    6       -6.695859
    7       -6.484491
    8       -6.164452
    9        0.460023
   10        0.891196
   11        1.693264
   12        2.088301
 
  0.2500000E+00  0.0000000E+00  0.0000000E+00  0.2314815E-02
    1      -21.742483
    2      -18.831878
    3      -13.284643
    4       -9.810717
    5       -9.050380
    6       -7.074836
    7       -6.683935
    8       -6.528039
    9        0.979196
   10        1.045412
   11        1.848986
   12        2.246201
 
  0.2916667E+00  0.0000000E+00  0.0000000E+00  0.2314815E-02
    1      -21.608545
    2      -19.177868
    3      -12.751620
    4       -9.652657
    5       -8.920412
    6       -7.498001
    7       -6.899242
    8       -6.890782
    9        1.227604
   10        1.521029
   11        2.032888
   12        2.432804
 
  0.3333333E+00  0.0000000E+00  0.0000000E+00  0.2314815E-02
    1      -21.454255
    2      -19.506525
    3      -12.210782
    4       -9.471051
    5       -8.772484
    6       -7.957319
    7       -7.245939
    8       -7.124274
    9        1.437728
   10        2.076176
   11        2.244868
   12        2.648107
 
  0.3750000E+00  0.0000000E+00  0.0000000E+00  0.2314815E-02
    1      -21.279727
    2      -19.817146
    3      -11.664560
    4       -9.266282
    5       -8.607598
    6       -8.445447
    7       -7.588996
    8       -7.353632
    9        1.675723
   10        2.484757
   11        2.636548
   12        2.892069
 
  0.4166667E+00  0.0000000E+00  0.0000000E+00  0.2314815E-02
    1      -21.085095
    2      -20.109216
    3      -11.115549
    4       -9.038829
    5       -8.955835
    6       -8.426984
    7       -7.916824
    8       -7.582688
    9        1.941504
   10        2.752219
   11        3.164688
   12        3.191482
 
  0.4583333E+00  0.0000000E+00  0.0000000E+00  0.2314815E-02
    1      -20.870521
    2      -20.382338
    3      -10.566638
    4       -9.482725
    5       -8.789291
    6       -8.232148
    7       -8.227184
    8       -7.807536
    9        2.234945
   10        2.903804
   11        3.046372
   12        3.470934
 
  0.5000000E+00  0.0000000E+00  0.0000000E+00  0.1157407E-02
    1      -20.636195
    2      -20.636195
    3      -10.021108
    4      -10.021108
    5       -8.518421
    6       -8.518421
    7       -8.024923
    8       -8.024923
    9        2.555842
   10        2.555842
   11        3.363351
   12        3.363353
 
  0.0000000E+00  0.2777778E-01  0.0000000E+00  0.2314815E-02
    1      -22.101288
    2      -16.753233
    3      -15.873750
    4      -10.235826
    5       -9.477103
    6       -6.010770
    7       -5.778937
    8       -4.928022
    9       -1.133329
   10        0.558340
   11        1.357051
   12        1.747672
 
  0.4166667E-01  0.2777778E-01  0.0000000E+00  0.4629630E-02
    1      -22.090938
    2      -16.942722
    3      -15.669257
    4      -10.223531
    5       -9.466706
    6       -6.037579
    7       -5.815598
    8       -4.997609
    9       -1.048832
   10        0.572370
   11        1.371228
   12        1.762028
 
  0.8333333E-01  0.2777778E-01  0.0000000E+00  0.4629630E-02
    1      -22.059895
    2      -17.303436
    3      -15.263621
    4      -10.186667
    5       -9.435560
    6       -6.118417
    7       -5.922442
    8       -5.189531
    9       -0.812360
   10        0.614456
   11        1.413753
   12        1.805094
 
  0.1250000E+00  0.2777778E-01  0.0000000E+00  0.4629630E-02
    1      -22.008177
    2      -17.693162
    3      -14.799342
    4      -10.125289
    5       -9.383812
    6       -6.257669
    7       -6.087322
    8       -5.467209
    9       -0.461019
   10        0.684596
   11        1.484616
   12        1.876872
 
  0.1666667E+00  0.2777778E-01  0.0000000E+00  0.4629630E-02
    1      -21.935820
    2      -18.080766
    3      -14.308037
    4      -10.039496
    5       -9.311712
    6       -6.470219
    7       -6.283655
    8       -5.795695
    9       -0.030655
   10        0.782782
   11        1.583796
   12        1.977360
 
  0.2083333E+00  0.2777778E-01  0.0000000E+00  0.4629630E-02
    1      -21.842875
    2      -18.457392
    3      -13.799260
    4       -9.929427
    5       -9.219617
    6       -6.763988
    7       -6.489355
    8       -6.149890
    9        0.452378
   10        0.909001
   11        1.711264
   12        2.106558
 
  0.2500000E+00  0.2777778E-01  0.0000000E+00  0.4629630E-02
    1      -21.729403
    2      -18.819524
    3      -13.277452
    4       -9.795271
    5       -9.108009
    6       -7.123834
    7       -6.704383
    8       -6.513528
    9        0.970174
   10        1.063229
   11        1.866976
   12        2.264461
 
  0.2916667E+00  0.2777778E-01  0.0000000E+00  0.4629630E-02
    1      -21.595486
    2      -19.165392
    3      -12.745556
    4       -9.637270
    5       -8.977506
    6       -7.534091
    7       -6.929373
    8       -6.876255
    9        1.245434
   10        1.510323
   11        2.050866
   12        2.451067
 
  0.3333333E+00  0.2777778E-01  0.0000000E+00  0.4629630E-02
    1      -21.441222
    2      -19.493944
    3      -12.206087
    4       -9.455731
    5       -8.828886
    6       -7.983822
    7       -7.231354
    8       -7.161159
    9        1.455574
   10        2.063549
   11        2.262835
   12        2.666367
 
  0.3750000E+00  0.2777778E-01  0.0000000E+00  0.4629630E-02
    1      -21.266725
    2      -19.804475
    3      -11.661533
    4       -9.251038
    5       -8.663111
    6       -8.464500
    7       -7.574327
    8       -7.395534
    9        1.693587
   10        2.502719
   11        2.621908
   12        2.910375
 
  0.4166667E+00  0.2777778E-01  0.0000000E+00  0.4629630E-02
    1      -21.072129
    2      -20.096468
    3      -11.114561
    4       -9.023670
    5       -8.968979
    6       -8.481360
    7       -7.902058
    8       -7.628434
    9        1.959390
   10        2.770188
   11        3.182974
   12        3.295791
 
  0.4583333E+00  0.2777778E-01  0.0000000E+00  0.4629630E-02
    1      -20.857597
    2      -20.369522
    3      -10.568154
    4       -9.491137
    5       -8.774223
    6       -8.285076
    7       -8.212316
    8       -7.856276
    9        2.252862
   10        2.921885
   11        3.064376
   12        3.485108
 
  0.5000000E+00  0.2777778E-01  0.0000000E+00  0.2314815E-02
    1      -20.623321
    2      -20.623321
    3      -10.025708
    4      -10.025708
    5       -8.503452
    6       -8.503452
    7       -8.076008
    8       -8.076008
    9        2.573813
   10        2.573813
   11        3.381379
   12        3.381483
 
  0.0000000E+00  0.5555556E-01  0.0000000E+00  0.2314815E-02
    1      -22.061896
    2      -16.719267
    3      -15.842099
    4      -10.189037
    5       -9.648750
    6       -6.169002
    7       -5.873480
    8       -4.880293
    9       -1.151375
   10        0.611669
   11        1.411125
   12        1.802426
 
  0.4166667E-01  0.5555556E-01  0.0000000E+00  0.4629630E-02
    1      -22.051550
    2      -16.908417
    3      -15.638128
    4      -10.176756
    5       -9.638262
    6       -6.202323
    7       -5.901526
    8       -4.950410
    9       -1.066743
   10        0.625701
   11        1.425298
   12        1.816781
 
  0.8333333E-01  0.5555556E-01  0.0000000E+00  0.4629630E-02
    1      -22.020519
    2      -17.268502
    3      -15.233681
    4      -10.139932
    5       -9.606840
    6       -6.300498
    7       -5.985095
    8       -5.143515
    9       -0.830269
   10        0.667796
   11        1.467813
   12        1.859850
 
  0.1250000E+00  0.5555556E-01  0.0000000E+00  0.4629630E-02
    1      -21.968823
    2      -17.657601
    3      -14.770985
    4      -10.078622
    5       -9.554614
    6       -6.459574
    7       -6.121334
    8       -5.422363
    9       -0.479734
   10        0.737951
   11        1.538659
   12        1.931630
 
  0.1666667E+00  0.5555556E-01  0.0000000E+00  0.4629630E-02
    1      -21.896499
    2      -18.044643
    3      -14.281638
    4       -9.992924
    5       -9.481803
    6       -6.676096
    7       -6.303227
    8       -5.751672
    9       -0.051318
   10        0.836159
   11        1.637816
   12        2.032123
 
  0.2083333E+00  0.5555556E-01  0.0000000E+00  0.4629630E-02
    1      -21.803595
    2      -18.420778
    3      -13.775243
    4       -9.882978
    5       -9.388721
    6       -6.948305
    7       -6.519527
    8       -6.106312
    9        0.428597
   10        0.962405
   11        1.765255
   12        2.161326
 
  0.2500000E+00  0.5555556E-01  0.0000000E+00  0.4629630E-02
    1      -21.690175
    2      -18.782485
    3      -13.256327
    4       -9.748972
    5       -9.275789
    6       -7.274638
    7       -6.757486
    8       -6.470100
    9        0.942203
   10        1.116665
   11        1.920932
   12        2.319238
 
  0.2916667E+00  0.5555556E-01  0.0000000E+00  0.4629630E-02
    1      -21.556324
    2      -19.127986
    3      -12.727952
    4       -9.591149
    5       -9.143544
    6       -7.651290
    7       -7.006407
    8       -6.832773
    9        1.298907
   10        1.477230
   11        2.104784
   12        2.505854
 
  0.3333333E+00  0.5555556E-01  0.0000000E+00  0.4629630E-02
    1      -21.402137
    2      -19.456222
    3      -12.192783
    4       -9.409815
    5       -8.992658
    6       -8.071784
    7       -7.258907
    8       -7.187688
    9        1.509086
   10        2.024591
   11        2.316719
   12        2.721167
 
  0.3750000E+00  0.5555556E-01  0.0000000E+00  0.4629630E-02
    1      -21.227732
    2      -19.766479
    3      -11.653501
    4       -9.205355
    5       -8.823953
    6       -8.528384
    7       -7.530402
    8       -7.510024
    9        1.747144
   10        2.556580
   11        2.576728
   12        2.965164
 
  0.4166667E+00  0.5555556E-01  0.0000000E+00  0.4629630E-02
    1      -21.033245
    2      -20.058237
    3      -11.113023
    4       -9.013448
    5       -8.978244
    6       -8.638429
    7       -7.857835
    8       -7.756111
    9        2.013002
   10        2.824065
   11        3.125581
   12        3.237844
 
  0.4583333E+00  0.5555556E-01  0.0000000E+00  0.4629630E-02
    1      -20.818841
    2      -20.331090
    3      -10.574651
    4       -9.520058
    5       -8.729077
    6       -8.437292
    7       -8.167780
    8       -7.994245
    9        2.306549
   10        2.975944
   11        3.118363
   12        3.540073
 
  0.5000000E+00  0.5555556E-01  0.0000000E+00  0.2314815E-02
    1      -20.584714
    2      -20.584714
    3      -10.042185
    4      -10.042185
    5       -8.458605
    6       -8.458605
    7       -8.221989
    8       -8.221989
    9        2.627624
   10        2.627624
   11        3.435450
   12        3.435454
 
  0.0000000E+00  0.8333333E-01  0.0000000E+00  0.2314815E-02
    1      -21.996281
    2      -16.662670
    3      -15.790043
    4      -10.111163
    5       -9.920071
    6       -6.419877
    7       -6.027893
    8       -4.800810
    9       -1.184086
   10        0.700574
   11        1.501224
   12        1.893685
 
  0.4166667E-01  0.8333333E-01  0.0000000E+00  0.4629630E-02
    1      -21.985943
    2      -16.851318
    3      -15.586903
    4      -10.098905
    5       -9.909410
    6       -6.459281
    7       -6.046548
    8       -4.871867
    9       -1.099188
   10        0.714608
   11        1.515391
   12        1.908041
 
  0.8333333E-01  0.8333333E-01  0.0000000E+00  0.4629630E-02
    1      -21.954933
    2      -17.210383
    3      -15.184471
    4      -10.062151
    5       -9.877460
    6       -6.571213
    7       -6.106967
    8       -5.067056
    9       -0.862656
   10        0.756711
   11        1.557887
   12        1.951111
 
  0.1250000E+00  0.8333333E-01  0.0000000E+00  0.4629630E-02
    1      -21.903275
    2      -17.598440
    3      -14.724530
    4      -10.000957
    5       -9.824314
    6       -6.743008
    7       -6.216424
    8       -5.347939
    9       -0.513465
   10        0.826880
   11        1.628702
   12        2.022895
 
  0.1666667E+00  0.8333333E-01  0.0000000E+00  0.4629630E-02
    1      -21.831004
    2      -17.984537
    3      -14.238630
    4       -9.915422
    5       -9.750132
    6       -6.963611
    7       -6.377364
    8       -5.678660
    9       -0.088372
   10        0.925111
   11        1.727816
   12        2.123393
 
  0.2083333E+00  0.8333333E-01  0.0000000E+00  0.4629630E-02
    1      -21.738170
    2      -18.359844
    3      -13.736474
    4       -9.805686
    5       -9.655137
    6       -7.225953
    7       -6.585661
    8       -6.034051
    9        0.386209
   10        1.051387
   11        1.855199
   12        2.252604
 
  0.2500000E+00  0.8333333E-01  0.0000000E+00  0.4629630E-02
    1      -21.624840
    2      -18.720833
    3      -13.222759
    4       -9.671938
    5       -9.539623
    6       -7.526790
    7       -6.831686
    8       -6.398076
    9        0.892649
   10        1.205686
   11        2.010809
   12        2.410526
 
  0.2916667E+00  0.8333333E-01  0.0000000E+00  0.4629630E-02
    1      -21.491097
    2      -19.065715
    3      -12.700782
    4       -9.514420
    5       -9.403953
    6       -7.865679
    7       -7.102301
    8       -6.760637
    9        1.387973
   10        1.418917
   11        2.194588
   12        2.597156
 
  0.3333333E+00  0.8333333E-01  0.0000000E+00  0.4629630E-02
    1      -21.337040
    2      -19.393417
    3      -12.173521
    4       -9.333440
    5       -9.248561
    6       -8.243015
    7       -7.383702
    8       -7.115221
    9        1.598201
   10        1.956219
   11        2.406451
   12        2.812485
 
  0.3750000E+00  0.8333333E-01  0.0000000E+00  0.4629630E-02
    1      -21.162789
    2      -19.703214
    3      -11.644067
    4       -9.129379
    5       -9.073956
    6       -8.657703
    7       -7.664399
    8       -7.457477
    9        1.836312
   10        2.497498
   11        2.646260
   12        3.056506
 
  0.4166667E+00  0.8333333E-01  0.0000000E+00  0.4629630E-02
    1      -20.968485
    2      -19.994577
    3      -11.115873
    4       -9.106016
    5       -8.902711
    6       -8.880721
    7       -7.936731
    8       -7.784388
    9        2.102230
   10        2.913759
   11        3.036073
   12        3.329218
 
  0.4583333E+00  0.8333333E-01  0.0000000E+00  0.4629630E-02
    1      -20.754296
    2      -20.267089
    3      -10.592930
    4       -9.582221
    5       -8.669515
    6       -8.654029
    7       -8.196391
    8       -8.093789
    9        2.395856
   10        3.065611
   11        3.208253
   12        3.629492
 
  0.5000000E+00  0.8333333E-01  0.0000000E+00  0.2314815E-02
    1      -20.520420
    2      -20.520420
    3      -10.079902
    4      -10.079902
    5       -8.441095
    6       -8.441095
    7       -8.384074
    8       -8.384074
    9        2.717054
   10        2.717054
   11        3.525507
   12        3.525525
 
  0.0000000E+00  0.1111111E+00  0.0000000E+00  0.2314815E-02
    1      -21.904508
    2      -16.583464
    3      -15.718779
    4      -10.272652
    5      -10.002371
    6       -6.747696
    7       -6.237759
    8       -4.689672
    9       -1.235323
   10        0.825083
   11        1.627312
   12        2.021457
 
  0.4166667E-01  0.1111111E+00  0.0000000E+00  0.4629630E-02
    1      -21.894180
    2      -16.771546
    3      -15.516714
    4      -10.261696
    5       -9.990147
    6       -6.792079
    7       -6.247176
    8       -4.762178
    9       -1.149955
   10        0.839117
   11        1.641468
   12        2.035814
 
  0.8333333E-01  0.1111111E+00  0.0000000E+00  0.4629630E-02
    1      -21.863202
    2      -17.129258
    3      -15.117194
    4      -10.228838
    5       -9.953494
    6       -6.914876
    7       -6.284557
    8       -4.960541
    9       -0.913188
   10        0.881218
   11        1.683934
   12        2.078883
 
  0.1250000E+00  0.1111111E+00  0.0000000E+00  0.4629630E-02
    1      -21.811597
    2      -17.515854
    3      -14.661399
    4      -10.174108
    5       -9.892470
    6       -7.096720
    7       -6.365526
    8       -5.244467
    9       -0.565852
   10        0.951388
   11        1.754698
   12        2.150668
 
  0.1666667E+00  0.1111111E+00  0.0000000E+00  0.4629630E-02
    1      -21.739400
    2      -17.900609
    3      -14.180795
    4      -10.097549
    5       -9.807172
    6       -7.322005
    7       -6.499331
    8       -5.577252
    9       -0.145545
   10        1.049626
   11        1.853740
   12        2.251168
 
  0.2083333E+00  0.1111111E+00  0.0000000E+00  0.4629630E-02
    1      -21.646665
    2      -18.274734
    3      -13.685261
    4       -9.999209
    5       -9.697743
    6       -7.580610
    7       -6.687216
    8       -5.933705
    9        0.321317
   10        1.175920
   11        1.981029
   12        2.380385
 
  0.2500000E+00  0.1111111E+00  0.0000000E+00  0.4629630E-02
    1      -21.533460
    2      -18.634697
    3      -13.179807
    4       -9.879125
    5       -9.564372
    6       -7.866686
    7       -6.924091
    8       -6.298030
    9        0.817403
   10        1.330247
   11        2.136525
   12        2.538317
 
  0.2916667E+00  0.1111111E+00  0.0000000E+00  0.4629630E-02
    1      -21.399870
    2      -18.978693
    3      -12.668178
    4       -9.737302
    5       -9.407302
    6       -8.177868
    7       -7.200086
    8       -6.660383
    9        1.331040
   10        1.512570
   11        2.320172
   12        2.724959
 
  0.3333333E+00  0.1111111E+00  0.0000000E+00  0.4629630E-02
    1      -21.245997
    2      -19.305633
    3      -12.153957
    4       -9.573680
    5       -9.226839
    6       -8.514736
    7       -7.501944
    8       -7.014445
    9        1.722839
   10        1.853826
   11        2.531894
   12        2.940306
 
  0.3750000E+00  0.1111111E+00  0.0000000E+00  0.4629630E-02
    1      -21.071965
    2      -19.614775
    3      -11.641048
    4       -9.388098
    5       -9.023365
    6       -8.879850
    7       -7.814775
    8       -7.356001
    9        1.960992
   10        2.379223
   11        2.771578
   12        3.184348
 
  0.4166667E+00  0.1111111E+00  0.0000000E+00  0.4629630E-02
    1      -20.877919
    2      -19.905574
    3      -11.133952
    4       -9.275839
    5       -9.180260
    6       -8.797350
    7       -8.124499
    8       -7.682125
    9        2.226953
   10        2.901684
   11        3.039040
   12        3.457076
 
  0.4583333E+00  0.1111111E+00  0.0000000E+00  0.4629630E-02
    1      -20.664036
    2      -20.177602
    3      -10.637925
    4       -9.703136
    5       -8.949769
    6       -8.549382
    7       -8.420415
    8       -7.990710
    9        2.520629
   10        3.190587
   11        3.333809
   12        3.415296
 
  0.5000000E+00  0.1111111E+00  0.0000000E+00  0.2314815E-02
    1      -20.430517
    2      -20.430517
    3      -10.158923
    4      -10.158923
    5       -8.696335
    6       -8.696335
    7       -8.280194
    8       -8.280194
    9        2.841897
   10        2.841897
   11        3.651237
   12        3.651248
 
  0.0000000E+00  0.1388889E+00  0.0000000E+00  0.2314815E-02
    1      -21.786668
    2      -16.481679
    3      -15.630342
    4      -10.685973
    5       -9.862898
    6       -7.135627
    7       -6.497463
    8       -4.547021
    9       -1.310255
   10        0.985216
   11        1.789331
   12        2.185747
 
  0.4166667E-01  0.1388889E+00  0.0000000E+00  0.4629630E-02
    1      -21.776353
    2      -16.669304
    3      -15.429503
    4      -10.674523
    5       -9.850720
    6       -7.184193
    7       -6.497774
    8       -4.621659
    9       -1.224066
   10        0.999243
   11        1.803472
   12        2.200104
 
  0.8333333E-01  0.1388889E+00  0.0000000E+00  0.4629630E-02
    1      -21.745415
    2      -17.025410
    3      -15.033948
    4      -10.640143
    5       -9.814205
    6       -7.316212
    7       -6.511766
    8       -4.824608
    9       -0.986641
   10        1.041328
   11        1.845890
   12        2.243170
 
  0.1250000E+00  0.1388889E+00  0.0000000E+00  0.4629630E-02
    1      -21.693878
    2      -17.410124
    3      -14.584128
    4      -10.582736
    5       -9.753411
    6       -7.507017
    7       -6.562029
    8       -5.112808
    9       -0.641566
   10        1.111477
   11        1.916572
   12        2.314951
 
  0.1666667E+00  0.1388889E+00  0.0000000E+00  0.4629630E-02
    1      -21.621780
    2      -17.793113
    3      -14.111385
    4      -10.502116
    5       -9.668437
    6       -7.737695
    7       -6.663495
    8       -5.448397
    9       -0.227564
   10        1.209695
   11        2.015496
   12        2.415449
 
  0.2083333E+00  0.1388889E+00  0.0000000E+00  0.4629630E-02
    1      -21.529174
    2      -18.165671
    3      -13.625921
    4      -10.397975
    5       -9.559426
    6       -7.996203
    7       -6.821931
    8       -5.806219
    9        0.229043
   10        1.335977
   11        2.142630
   12        2.544666
 
  0.2500000E+00  0.1388889E+00  0.0000000E+00  0.4629630E-02
    1      -21.416131
    2      -18.524273
    3      -13.133345
    4      -10.269825
    5       -9.426569
    6       -8.275070
    7       -7.036214
    8       -6.170860
    9        0.711408
   10        1.490303
   11        2.297929
   12        2.702602
 
  0.2916667E+00  0.1388889E+00  0.0000000E+00  0.4629630E-02
    1      -21.282740
    2      -18.867096
    3      -12.638267
    4      -10.116925
    5       -9.270110
    6       -8.570048
    7       -7.300117
    8       -6.532840
    9        1.208393
   10        1.672637
   11        2.481333
   12        2.889254
 
  0.3333333E+00  0.1388889E+00  0.0000000E+00  0.4629630E-02
    1      -21.129106
    2      -19.193027
    3      -12.145450
    4       -9.938190
    5       -9.090355
    6       -8.879609
    7       -7.603580
    8       -6.886115
    9        1.712121
   10        1.882923
   11        2.692767
   12        3.104614
 
  0.3750000E+00  0.1388889E+00  0.0000000E+00  0.4629630E-02
    1      -20.955360
    2      -19.501303
    3      -11.660299
    4       -9.732141
    5       -9.204809
    6       -8.887685
    7       -7.933696
    8       -7.226655
    9        2.121093
   10        2.216611
   11        2.932131
   12        3.348674
 
  0.4166667E+00  0.1388889E+00  0.0000000E+00  0.4629630E-02
    1      -20.761654
    2      -19.791358
    3      -11.188987
    4       -9.549054
    5       -9.497045
    6       -8.662570
    7       -8.275654
    8       -7.551658
    9        2.387066
   10        2.717024
   11        3.199298
   12        3.621426
 
  0.4583333E+00  0.1388889E+00  0.0000000E+00  0.4629630E-02
    1      -20.548169
    2      -20.062750
    3      -10.738044
    4       -9.917128
    5       -9.231502
    6       -8.614181
    7       -8.415588
    8       -7.859098
    9        2.680746
   10        3.209236
   11        3.350711
   12        3.494097
 
  0.5000000E+00  0.1388889E+00  0.0000000E+00  0.2314815E-02
    1      -20.315118
    2      -20.315118
    3      -10.313119
    4      -10.313119
    5       -8.935851
    6       -8.935851
    7       -8.147462
    8       -8.147462
    9        3.002012
   10        3.002012
   11        3.689521
   12        3.689858
 
  0.0000000E+00  0.1666667E+00  0.0000000E+00  0.2314815E-02
    1      -21.642881
    2      -16.357355
    3      -15.528162
    4      -11.139304
    5       -9.693063
    6       -7.567914
    7       -6.800617
    8       -4.373040
    9       -1.414986
   10        1.180974
   11        1.987203
   12        2.386559
 
  0.4166667E-01  0.1666667E+00  0.0000000E+00  0.4629630E-02
    1      -21.632583
    2      -16.544923
    3      -15.328562
    4      -11.127013
    5       -9.680945
    6       -7.620216
    7       -6.791899
    8       -4.450802
    9       -1.327335
   10        1.194990
   11        2.001318
   12        2.400913
 
  0.8333333E-01  0.1666667E+00  0.0000000E+00  0.4629630E-02
    1      -21.601696
    2      -16.899293
    3      -14.938376
    4      -11.090027
    5       -9.644610
    6       -7.760601
    7       -6.782166
    8       -4.660283
    9       -1.088351
   10        1.237040
   11        2.043659
   12        2.443973
 
  0.1250000E+00  0.1666667E+00  0.0000000E+00  0.4629630E-02
    1      -21.550244
    2      -17.281684
    3      -14.497256
    4      -11.027986
    5       -9.584118
    6       -7.959928
    7       -6.799991
    8       -4.954320
    9       -0.745681
   10        1.307139
   11        2.114209
   12        2.515746
 
  0.1666667E+00  0.1666667E+00  0.0000000E+00  0.4629630E-02
    1      -21.478266
    2      -17.662432
    3      -14.036400
    4      -10.940229
    5       -9.499569
    6       -8.196617
    7       -6.865240
    8       -5.293555
    9       -0.339465
   10        1.405299
   11        2.212938
   12        2.616234
 
  0.2083333E+00  0.1666667E+00  0.0000000E+00  0.4629630E-02
    1      -21.385820
    2      -18.032990
    3      -13.566673
    4      -10.825698
    5       -9.391108
    6       -8.457301
    7       -6.987660
    8       -5.653021
    9        0.104297
   10        1.531526
   11        2.339802
   12        2.745442
 
  0.2500000E+00  0.1666667E+00  0.0000000E+00  0.4629630E-02
    1      -21.272978
    2      -18.389851
    3      -13.094866
    4      -10.682803
    5       -9.258928
    6       -8.733605
    7       -7.169628
    8       -6.017898
    9        0.569548
   10        1.685808
   11        2.494739
   12        2.903373
 
  0.2916667E+00  0.1666667E+00  0.0000000E+00  0.4629630E-02
    1      -21.139834
    2      -18.731176
    3      -12.627247
    4      -10.509293
    5       -9.103275
    6       -9.020249
    7       -7.408092
    8       -6.379223
    9        1.045948
   10        1.868110
   11        2.677660
   12        3.090026
 
  0.3333333E+00  0.1666667E+00  0.0000000E+00  0.4629630E-02
    1      -20.986499
    2      -19.055823
    3      -12.170597
    4      -10.302263
    5       -9.314226
    6       -8.924457
    7       -7.695943
    8       -6.731325
    9        1.526358
   10        2.078376
   11        2.888430
   12        3.305394
 
  0.3750000E+00  0.1666667E+00  0.0000000E+00  0.4629630E-02
    1      -20.813110
    2      -19.362999
    3      -11.732166
    4      -10.058636
    5       -9.614558
    6       -8.722855
    7       -8.023098
    8       -7.070420
    9        2.005492
   10        2.316528
   11        3.126817
   12        3.549469
 
  0.4166667E+00  0.1666667E+00  0.0000000E+00  0.4629630E-02
    1      -20.619829
    2      -19.652113
    3      -11.318520
    4       -9.922352
    5       -9.776574
    6       -8.498936
    7       -8.377283
    8       -7.393865
    9        2.479162
   10        2.582475
   11        3.392185
   12        3.822237
 
  0.4583333E+00  0.1666667E+00  0.0000000E+00  0.4629630E-02
    1      -20.406845
    2      -19.922700
    3      -10.933372
    4      -10.240963
    5       -9.457837
    6       -8.744524
    7       -8.253274
    8       -7.699734
    9        2.876109
   10        2.943759
   11        3.545898
   12        3.675614
 
  0.5000000E+00  0.1666667E+00  0.0000000E+00  0.2314815E-02
    1      -20.174382
    2      -20.174382
    3      -10.575833
    4      -10.575833
    5       -9.109699
    6       -9.109699
    7       -7.986578
    8       -7.986578
    9        3.197302
   10        3.197302
   11        3.395143
   12        3.395220
 