<?xml version="1.0" encoding="ISO-8859-1"?>
<modeling>
 <generator>
  <i name="program" type="string">vasp </i>
  <i name="version" type="string">5.3.5  </i>
  <i name="subversion" type="string">31Mar14 (build Mar 02 2015 18:14:16) complex                          parallel </i>
  <i name="platform" type="string">LinuxIFC </i>
  <i name="date" type="string">2018 08 09 </i>
  <i name="time" type="string">20:59:40 </i>
 </generator>
 <incar>
  <i type="string" name="SYSTEM">  gr</i>
  <i type="string" name="PREC">accurate : accuracy</i>
  <i type="string" name="ALGO"> FAST.</i>
  <i type="int" name="NELM">   100</i>
  <i type="int" name="NELMDL">    -3</i>
  <i type="int" name="NELMIN">     5</i>
  <i type="int" name="IBRION">     1</i>
  <i name="EDIFF">      0.00000000</i>
  <i name="EDIFFG">     -0.00000100</i>
  <i type="int" name="NSW">   400</i>
  <i type="int" name="ISIF">     2</i>
  <i name="ENCUT">   2000.00000000</i>
  <i type="int" name="ISMEAR">     0</i>
  <i name="SIGMA">      0.05000000</i>
  <i type="int" name="NWRITE">     2</i>
  <i type="logical" name="LWAVE"> F  </i>
  <i type="logical" name="LCHARG"> F  </i>
  <i type="int" name="NELM">   100</i>
 </incar>
 <kpoints>
  <generation param="Gamma">
   <v type="int" name="divisions">      24       36        1 </v>
   <v name="usershift">      0.00000000       0.00000000       0.00000000 </v>
   <v name="genvec1">      0.04166667       0.00000000       0.00000000 </v>
   <v name="genvec2">      0.00000000       0.02777778       0.00000000 </v>
   <v name="genvec3">      0.00000000       0.00000000       1.00000000 </v>
   <v name="shift">      0.00000000       0.00000000       0.00000000 </v>
  </generation>
  <varray name="kpointlist" >
   <v>       0.00000000       0.00000000       0.00000000 </v>
   <v>       0.04166667       0.00000000       0.00000000 </v>
   <v>       0.08333333       0.00000000       0.00000000 </v>
   <v>       0.12500000       0.00000000       0.00000000 </v>
   <v>       0.16666667       0.00000000       0.00000000 </v>
   <v>       0.20833333       0.00000000       0.00000000 </v>
   <v>       0.25000000       0.00000000       0.00000000 </v>
   <v>       0.29166667       0.00000000       0.00000000 </v>
   <v>       0.33333333       0.00000000       0.00000000 </v>
   <v>       0.37500000       0.00000000       0.00000000 </v>
   <v>       0.41666667       0.00000000       0.00000000 </v>
   <v>       0.45833333       0.00000000       0.00000000 </v>
   <v>       0.50000000       0.00000000       0.00000000 </v>
   <v>       0.00000000       0.02777778       0.00000000 </v>
   <v>       0.04166667       0.02777778       0.00000000 </v>
   <v>       0.08333333       0.02777778       0.00000000 </v>
   <v>       0.12500000       0.02777778       0.00000000 </v>
   <v>       0.16666667       0.02777778       0.00000000 </v>
   <v>       0.20833333       0.02777778       0.00000000 </v>
   <v>       0.25000000       0.02777778       0.00000000 </v>
   <v>       0.29166667       0.02777778       0.00000000 </v>
   <v>       0.33333333       0.02777778       0.00000000 </v>
   <v>       0.37500000       0.02777778       0.00000000 </v>
   <v>       0.41666667       0.02777778       0.00000000 </v>
   <v>       0.45833333       0.02777778       0.00000000 </v>
   <v>       0.50000000       0.02777778       0.00000000 </v>
   <v>       0.00000000       0.05555556       0.00000000 </v>
   <v>       0.04166667       0.05555556       0.00000000 </v>
   <v>       0.08333333       0.05555556       0.00000000 </v>
   <v>       0.12500000       0.05555556       0.00000000 </v>
   <v>       0.16666667       0.05555556       0.00000000 </v>
   <v>       0.20833333       0.05555556       0.00000000 </v>
   <v>       0.25000000       0.05555556       0.00000000 </v>
   <v>       0.29166667       0.05555556       0.00000000 </v>
   <v>       0.33333333       0.05555556       0.00000000 </v>
   <v>       0.37500000       0.05555556       0.00000000 </v>
   <v>       0.41666667       0.05555556       0.00000000 </v>
   <v>       0.45833333       0.05555556       0.00000000 </v>
   <v>       0.50000000       0.05555556       0.00000000 </v>
   <v>       0.00000000       0.08333333       0.00000000 </v>
   <v>       0.04166667       0.08333333       0.00000000 </v>
   <v>       0.08333333       0.08333333       0.00000000 </v>
   <v>       0.12500000       0.08333333       0.00000000 </v>
   <v>       0.16666667       0.08333333       0.00000000 </v>
   <v>       0.20833333       0.08333333       0.00000000 </v>
   <v>       0.25000000       0.08333333       0.00000000 </v>
   <v>       0.29166667       0.08333333       0.00000000 </v>
   <v>       0.33333333       0.08333333       0.00000000 </v>
   <v>       0.37500000       0.08333333       0.00000000 </v>
   <v>       0.41666667       0.08333333       0.00000000 </v>
   <v>       0.45833333       0.08333333       0.00000000 </v>
   <v>       0.50000000       0.08333333       0.00000000 </v>
   <v>       0.00000000       0.11111111       0.00000000 </v>
   <v>       0.04166667       0.11111111       0.00000000 </v>
   <v>       0.08333333       0.11111111       0.00000000 </v>
   <v>       0.12500000       0.11111111       0.00000000 </v>
   <v>       0.16666667       0.11111111       0.00000000 </v>
   <v>       0.20833333       0.11111111       0.00000000 </v>
   <v>       0.25000000       0.11111111       0.00000000 </v>
   <v>       0.29166667       0.11111111       0.00000000 </v>
   <v>       0.33333333       0.11111111       0.00000000 </v>
   <v>       0.37500000       0.11111111       0.00000000 </v>
   <v>       0.41666667       0.11111111       0.00000000 </v>
   <v>       0.45833333       0.11111111       0.00000000 </v>
   <v>       0.50000000       0.11111111       0.00000000 </v>
   <v>       0.00000000       0.13888889       0.00000000 </v>
   <v>       0.04166667       0.13888889       0.00000000 </v>
   <v>       0.08333333       0.13888889       0.00000000 </v>
   <v>       0.12500000       0.13888889       0.00000000 </v>
   <v>       0.16666667       0.13888889       0.00000000 </v>
   <v>       0.20833333       0.13888889       0.00000000 </v>
   <v>       0.25000000       0.13888889       0.00000000 </v>
   <v>       0.29166667       0.13888889       0.00000000 </v>
   <v>       0.33333333       0.13888889       0.00000000 </v>
   <v>       0.37500000       0.13888889       0.00000000 </v>
   <v>       0.41666667       0.13888889       0.00000000 </v>
   <v>       0.45833333       0.13888889       0.00000000 </v>
   <v>       0.50000000       0.13888889       0.00000000 </v>
   <v>       0.00000000       0.16666667       0.00000000 </v>
   <v>       0.04166667       0.16666667       0.00000000 </v>
   <v>       0.08333333       0.16666667       0.00000000 </v>
   <v>       0.12500000       0.16666667       0.00000000 </v>
   <v>       0.16666667       0.16666667       0.00000000 </v>
   <v>       0.20833333       0.16666667       0.00000000 </v>
   <v>       0.25000000       0.16666667       0.00000000 </v>
   <v>       0.29166667       0.16666667       0.00000000 </v>
   <v>       0.33333333       0.16666667       0.00000000 </v>
   <v>       0.37500000       0.16666667       0.00000000 </v>
   <v>       0.41666667       0.16666667       0.00000000 </v>
   <v>       0.45833333       0.16666667       0.00000000 </v>
   <v>       0.50000000       0.16666667       0.00000000 </v>
   <v>       0.00000000       0.19444444       0.00000000 </v>
   <v>       0.04166667       0.19444444       0.00000000 </v>
   <v>       0.08333333       0.19444444       0.00000000 </v>
   <v>       0.12500000       0.19444444       0.00000000 </v>
   <v>       0.16666667       0.19444444       0.00000000 </v>
   <v>       0.20833333       0.19444444       0.00000000 </v>
   <v>       0.25000000       0.19444444       0.00000000 </v>
   <v>       0.29166667       0.19444444       0.00000000 </v>
   <v>       0.33333333       0.19444444       0.00000000 </v>
   <v>       0.37500000       0.19444444       0.00000000 </v>
   <v>       0.41666667       0.19444444       0.00000000 </v>
   <v>       0.45833333       0.19444444       0.00000000 </v>
   <v>       0.50000000       0.19444444       0.00000000 </v>
   <v>       0.00000000       0.22222222       0.00000000 </v>
   <v>       0.04166667       0.22222222       0.00000000 </v>
   <v>       0.08333333       0.22222222       0.00000000 </v>
   <v>       0.12500000       0.22222222       0.00000000 </v>
   <v>       0.16666667       0.22222222       0.00000000 </v>
   <v>       0.20833333       0.22222222       0.00000000 </v>
   <v>       0.25000000       0.22222222       0.00000000 </v>
   <v>       0.29166667       0.22222222       0.00000000 </v>
   <v>       0.33333333       0.22222222       0.00000000 </v>
   <v>       0.37500000       0.22222222       0.00000000 </v>
   <v>       0.41666667       0.22222222       0.00000000 </v>
   <v>       0.45833333       0.22222222       0.00000000 </v>
   <v>       0.50000000       0.22222222       0.00000000 </v>
   <v>       0.00000000       0.25000000       0.00000000 </v>
   <v>       0.04166667       0.25000000       0.00000000 </v>
   <v>       0.08333333       0.25000000       0.00000000 </v>
   <v>       0.12500000       0.25000000       0.00000000 </v>
   <v>       0.16666667       0.25000000       0.00000000 </v>
   <v>       0.20833333       0.25000000       0.00000000 </v>
   <v>       0.25000000       0.25000000       0.00000000 </v>
   <v>       0.29166667       0.25000000       0.00000000 </v>
   <v>       0.33333333       0.25000000       0.00000000 </v>
   <v>       0.37500000       0.25000000       0.00000000 </v>
   <v>       0.41666667       0.25000000       0.00000000 </v>
   <v>       0.45833333       0.25000000       0.00000000 </v>
   <v>       0.50000000       0.25000000       0.00000000 </v>
   <v>       0.00000000       0.27777778       0.00000000 </v>
   <v>       0.04166667       0.27777778       0.00000000 </v>
   <v>       0.08333333       0.27777778       0.00000000 </v>
   <v>       0.12500000       0.27777778       0.00000000 </v>
   <v>       0.16666667       0.27777778       0.00000000 </v>
   <v>       0.20833333       0.27777778       0.00000000 </v>
   <v>       0.25000000       0.27777778       0.00000000 </v>
   <v>       0.29166667       0.27777778       0.00000000 </v>
   <v>       0.33333333       0.27777778       0.00000000 </v>
   <v>       0.37500000       0.27777778       0.00000000 </v>
   <v>       0.41666667       0.27777778       0.00000000 </v>
   <v>       0.45833333       0.27777778       0.00000000 </v>
   <v>       0.50000000       0.27777778       0.00000000 </v>
   <v>       0.00000000       0.30555556       0.00000000 </v>
   <v>       0.04166667       0.30555556       0.00000000 </v>
   <v>       0.08333333       0.30555556       0.00000000 </v>
   <v>       0.12500000       0.30555556       0.00000000 </v>
   <v>       0.16666667       0.30555556       0.00000000 </v>
   <v>       0.20833333       0.30555556       0.00000000 </v>
   <v>       0.25000000       0.30555556       0.00000000 </v>
   <v>       0.29166667       0.30555556       0.00000000 </v>
   <v>       0.33333333       0.30555556       0.00000000 </v>
   <v>       0.37500000       0.30555556       0.00000000 </v>
   <v>       0.41666667       0.30555556       0.00000000 </v>
   <v>       0.45833333       0.30555556       0.00000000 </v>
   <v>       0.50000000       0.30555556       0.00000000 </v>
   <v>       0.00000000       0.33333333       0.00000000 </v>
   <v>       0.04166667       0.33333333       0.00000000 </v>
   <v>       0.08333333       0.33333333       0.00000000 </v>
   <v>       0.12500000       0.33333333       0.00000000 </v>
   <v>       0.16666667       0.33333333       0.00000000 </v>
   <v>       0.20833333       0.33333333       0.00000000 </v>
   <v>       0.25000000       0.33333333       0.00000000 </v>
   <v>       0.29166667       0.33333333       0.00000000 </v>
   <v>       0.33333333       0.33333333       0.00000000 </v>
   <v>       0.37500000       0.33333333       0.00000000 </v>
   <v>       0.41666667       0.33333333       0.00000000 </v>
   <v>       0.45833333       0.33333333       0.00000000 </v>
   <v>       0.50000000       0.33333333       0.00000000 </v>
   <v>       0.00000000       0.36111111       0.00000000 </v>
   <v>       0.04166667       0.36111111       0.00000000 </v>
   <v>       0.08333333       0.36111111       0.00000000 </v>
   <v>       0.12500000       0.36111111       0.00000000 </v>
   <v>       0.16666667       0.36111111       0.00000000 </v>
   <v>       0.20833333       0.36111111       0.00000000 </v>
   <v>       0.25000000       0.36111111       0.00000000 </v>
   <v>       0.29166667       0.36111111       0.00000000 </v>
   <v>       0.33333333       0.36111111       0.00000000 </v>
   <v>       0.37500000       0.36111111       0.00000000 </v>
   <v>       0.41666667       0.36111111       0.00000000 </v>
   <v>       0.45833333       0.36111111       0.00000000 </v>
   <v>       0.50000000       0.36111111       0.00000000 </v>
   <v>       0.00000000       0.38888889       0.00000000 </v>
   <v>       0.04166667       0.38888889       0.00000000 </v>
   <v>       0.08333333       0.38888889       0.00000000 </v>
   <v>       0.12500000       0.38888889       0.00000000 </v>
   <v>       0.16666667       0.38888889       0.00000000 </v>
   <v>       0.20833333       0.38888889       0.00000000 </v>
   <v>       0.25000000       0.38888889       0.00000000 </v>
   <v>       0.29166667       0.38888889       0.00000000 </v>
   <v>       0.33333333       0.38888889       0.00000000 </v>
   <v>       0.37500000       0.38888889       0.00000000 </v>
   <v>       0.41666667       0.38888889       0.00000000 </v>
   <v>       0.45833333       0.38888889       0.00000000 </v>
   <v>       0.50000000       0.38888889       0.00000000 </v>
   <v>       0.00000000       0.41666667       0.00000000 </v>
   <v>       0.04166667       0.41666667       0.00000000 </v>
   <v>       0.08333333       0.41666667       0.00000000 </v>
   <v>       0.12500000       0.41666667       0.00000000 </v>
   <v>       0.16666667       0.41666667       0.00000000 </v>
   <v>       0.20833333       0.41666667       0.00000000 </v>
   <v>       0.25000000       0.41666667       0.00000000 </v>
   <v>       0.29166667       0.41666667       0.00000000 </v>
   <v>       0.33333333       0.41666667       0.00000000 </v>
   <v>       0.37500000       0.41666667       0.00000000 </v>
   <v>       0.41666667       0.41666667       0.00000000 </v>
   <v>       0.45833333       0.41666667       0.00000000 </v>
   <v>       0.50000000       0.41666667       0.00000000 </v>
   <v>       0.00000000       0.44444444       0.00000000 </v>
   <v>       0.04166667       0.44444444       0.00000000 </v>
   <v>       0.08333333       0.44444444       0.00000000 </v>
   <v>       0.12500000       0.44444444       0.00000000 </v>
   <v>       0.16666667       0.44444444       0.00000000 </v>
   <v>       0.20833333       0.44444444       0.00000000 </v>
   <v>       0.25000000       0.44444444       0.00000000 </v>
   <v>       0.29166667       0.44444444       0.00000000 </v>
   <v>       0.33333333       0.44444444       0.00000000 </v>
   <v>       0.37500000       0.44444444       0.00000000 </v>
   <v>       0.41666667       0.44444444       0.00000000 </v>
   <v>       0.45833333       0.44444444       0.00000000 </v>
   <v>       0.50000000       0.44444444       0.00000000 </v>
   <v>       0.00000000       0.47222222       0.00000000 </v>
   <v>       0.04166667       0.47222222       0.00000000 </v>
   <v>       0.08333333       0.47222222       0.00000000 </v>
   <v>       0.12500000       0.47222222       0.00000000 </v>
   <v>       0.16666667       0.47222222       0.00000000 </v>
   <v>       0.20833333       0.47222222       0.00000000 </v>
   <v>       0.25000000       0.47222222       0.00000000 </v>
   <v>       0.29166667       0.47222222       0.00000000 </v>
   <v>       0.33333333       0.47222222       0.00000000 </v>
   <v>       0.37500000       0.47222222       0.00000000 </v>
   <v>       0.41666667       0.47222222       0.00000000 </v>
   <v>       0.45833333       0.47222222       0.00000000 </v>
   <v>       0.50000000       0.47222222       0.00000000 </v>
   <v>       0.00000000       0.50000000       0.00000000 </v>
   <v>       0.04166667       0.50000000       0.00000000 </v>
   <v>       0.08333333       0.50000000       0.00000000 </v>
   <v>       0.12500000       0.50000000       0.00000000 </v>
   <v>       0.16666667       0.50000000       0.00000000 </v>
   <v>       0.20833333       0.50000000       0.00000000 </v>
   <v>       0.25000000       0.50000000       0.00000000 </v>
   <v>       0.29166667       0.50000000       0.00000000 </v>
   <v>       0.33333333       0.50000000       0.00000000 </v>
   <v>       0.37500000       0.50000000       0.00000000 </v>
   <v>       0.41666667       0.50000000       0.00000000 </v>
   <v>       0.45833333       0.50000000       0.00000000 </v>
   <v>       0.50000000       0.50000000       0.00000000 </v>
  </varray>
  <varray name="weights" >
   <v>       0.00115741 </v>
   <v>       0.00231481 </v>
   <v>       0.00231481 </v>
   <v>       0.00231481 </v>
   <v>       0.00231481 </v>
   <v>       0.00231481 </v>
   <v>       0.00231481 </v>
   <v>       0.00231481 </v>
   <v>       0.00231481 </v>
   <v>       0.00231481 </v>
   <v>       0.00231481 </v>
   <v>       0.00231481 </v>
   <v>       0.00115741 </v>
   <v>       0.00231481 </v>
   <v>       0.00462963 </v>
   <v>       0.00462963 </v>
   <v>       0.00462963 </v>
   <v>       0.00462963 </v>
   <v>       0.00462963 </v>
   <v>       0.00462963 </v>
   <v>       0.00462963 </v>
   <v>       0.00462963 </v>
   <v>       0.00462963 </v>
   <v>       0.00462963 </v>
   <v>       0.00462963 </v>
   <v>       0.00231481 </v>
   <v>       0.00231481 </v>
   <v>       0.00462963 </v>
   <v>       0.00462963 </v>
   <v>       0.00462963 </v>
   <v>       0.00462963 </v>
   <v>       0.00462963 </v>
   <v>       0.00462963 </v>
   <v>       0.00462963 </v>
   <v>       0.00462963 </v>
   <v>       0.00462963 </v>
   <v>       0.00462963 </v>
   <v>       0.00462963 </v>
   <v>       0.00231481 </v>
   <v>       0.00231481 </v>
   <v>       0.00462963 </v>
   <v>       0.00462963 </v>
   <v>       0.00462963 </v>
   <v>       0.00462963 </v>
   <v>       0.00462963 </v>
   <v>       0.00462963 </v>
   <v>       0.00462963 </v>
   <v>       0.00462963 </v>
   <v>       0.00462963 </v>
   <v>       0.00462963 </v>
   <v>       0.00462963 </v>
   <v>       0.00231481 </v>
   <v>       0.00231481 </v>
   <v>       0.00462963 </v>
   <v>       0.00462963 </v>
   <v>       0.00462963 </v>
   <v>       0.00462963 </v>
   <v>       0.00462963 </v>
   <v>       0.00462963 </v>
   <v>       0.00462963 </v>
   <v>       0.00462963 </v>
   <v>       0.00462963 </v>
   <v>       0.00462963 </v>
   <v>       0.00462963 </v>
   <v>       0.00231481 </v>
   <v>       0.00231481 </v>
   <v>       0.00462963 </v>
   <v>       0.00462963 </v>
   <v>       0.00462963 </v>
   <v>       0.00462963 </v>
   <v>       0.00462963 </v>
   <v>       0.00462963 </v>
   <v>       0.00462963 </v>
   <v>       0.00462963 </v>
   <v>       0.00462963 </v>
   <v>       0.00462963 </v>
   <v>       0.00462963 </v>
   <v>       0.00231481 </v>
   <v>       0.00231481 </v>
   <v>       0.00462963 </v>
   <v>       0.00462963 </v>
   <v>       0.00462963 </v>
   <v>       0.00462963 </v>
   <v>       0.00462963 </v>
   <v>       0.00462963 </v>
   <v>       0.00462963 </v>
   <v>       0.00462963 </v>
   <v>       0.00462963 </v>
   <v>       0.00462963 </v>
   <v>       0.00462963 </v>
   <v>       0.00231481 </v>
   <v>       0.00231481 </v>
   <v>       0.00462963 </v>
   <v>       0.00462963 </v>
   <v>       0.00462963 </v>
   <v>       0.00462963 </v>
   <v>       0.00462963 </v>
   <v>       0.00462963 </v>
   <v>       0.00462963 </v>
   <v>       0.00462963 </v>
   <v>       0.00462963 </v>
   <v>       0.00462963 </v>
   <v>       0.00462963 </v>
   <v>       0.00231481 </v>
   <v>       0.00231481 </v>
   <v>       0.00462963 </v>
   <v>       0.00462963 </v>
   <v>       0.00462963 </v>
   <v>       0.00462963 </v>
   <v>       0.00462963 </v>
   <v>       0.00462963 </v>
   <v>       0.00462963 </v>
   <v>       0.00462963 </v>
   <v>       0.00462963 </v>
   <v>       0.00462963 </v>
   <v>       0.00462963 </v>
   <v>       0.00231481 </v>
   <v>       0.00231481 </v>
   <v>       0.00462963 </v>
   <v>       0.00462963 </v>
   <v>       0.00462963 </v>
   <v>       0.00462963 </v>
   <v>       0.00462963 </v>
   <v>       0.00462963 </v>
   <v>       0.00462963 </v>
   <v>       0.00462963 </v>
   <v>       0.00462963 </v>
   <v>       0.00462963 </v>
   <v>       0.00462963 </v>
   <v>       0.00231481 </v>
   <v>       0.00231481 </v>
   <v>       0.00462963 </v>
   <v>       0.00462963 </v>
   <v>       0.00462963 </v>
   <v>       0.00462963 </v>
   <v>       0.00462963 </v>
   <v>       0.00462963 </v>
   <v>       0.00462963 </v>
   <v>       0.00462963 </v>
   <v>       0.00462963 </v>
   <v>       0.00462963 </v>
   <v>       0.00462963 </v>
   <v>       0.00231481 </v>
   <v>       0.00231481 </v>
   <v>       0.00462963 </v>
   <v>       0.00462963 </v>
   <v>       0.00462963 </v>
   <v>       0.00462963 </v>
   <v>       0.00462963 </v>
   <v>       0.00462963 </v>
   <v>       0.00462963 </v>
   <v>       0.00462963 </v>
   <v>       0.00462963 </v>
   <v>       0.00462963 </v>
   <v>       0.00462963 </v>
   <v>       0.00231481 </v>
   <v>       0.00231481 </v>
   <v>       0.00462963 </v>
   <v>       0.00462963 </v>
   <v>       0.00462963 </v>
   <v>       0.00462963 </v>
   <v>       0.00462963 </v>
   <v>       0.00462963 </v>
   <v>       0.00462963 </v>
   <v>       0.00462963 </v>
   <v>       0.00462963 </v>
   <v>       0.00462963 </v>
   <v>       0.00462963 </v>
   <v>       0.00231481 </v>
   <v>       0.00231481 </v>
   <v>       0.00462963 </v>
   <v>       0.00462963 </v>
   <v>       0.00462963 </v>
   <v>       0.00462963 </v>
   <v>       0.00462963 </v>
   <v>       0.00462963 </v>
   <v>       0.00462963 </v>
   <v>       0.00462963 </v>
   <v>       0.00462963 </v>
   <v>       0.00462963 </v>
   <v>       0.00462963 </v>
   <v>       0.00231481 </v>
   <v>       0.00231481 </v>
   <v>       0.00462963 </v>
   <v>       0.00462963 </v>
   <v>       0.00462963 </v>
   <v>       0.00462963 </v>
   <v>       0.00462963 </v>
   <v>       0.00462963 </v>
   <v>       0.00462963 </v>
   <v>       0.00462963 </v>
   <v>       0.00462963 </v>
   <v>       0.00462963 </v>
   <v>       0.00462963 </v>
   <v>       0.00231481 </v>
   <v>       0.00231481 </v>
   <v>       0.00462963 </v>
   <v>       0.00462963 </v>
   <v>       0.00462963 </v>
   <v>       0.00462963 </v>
   <v>       0.00462963 </v>
   <v>       0.00462963 </v>
   <v>       0.00462963 </v>
   <v>       0.00462963 </v>
   <v>       0.00462963 </v>
   <v>       0.00462963 </v>
   <v>       0.00462963 </v>
   <v>       0.00231481 </v>
   <v>       0.00231481 </v>
   <v>       0.00462963 </v>
   <v>       0.00462963 </v>
   <v>       0.00462963 </v>
   <v>       0.00462963 </v>
   <v>       0.00462963 </v>
   <v>       0.00462963 </v>
   <v>       0.00462963 </v>
   <v>       0.00462963 </v>
   <v>       0.00462963 </v>
   <v>       0.00462963 </v>
   <v>       0.00462963 </v>
   <v>       0.00231481 </v>
   <v>       0.00231481 </v>
   <v>       0.00462963 </v>
   <v>       0.00462963 </v>
   <v>       0.00462963 </v>
   <v>       0.00462963 </v>
   <v>       0.00462963 </v>
   <v>       0.00462963 </v>
   <v>       0.00462963 </v>
   <v>       0.00462963 </v>
   <v>       0.00462963 </v>
   <v>       0.00462963 </v>
   <v>       0.00462963 </v>
   <v>       0.00231481 </v>
   <v>       0.00115741 </v>
   <v>       0.00231481 </v>
   <v>       0.00231481 </v>
   <v>       0.00231481 </v>
   <v>       0.00231481 </v>
   <v>       0.00231481 </v>
   <v>       0.00231481 </v>
   <v>       0.00231481 </v>
   <v>       0.00231481 </v>
   <v>       0.00231481 </v>
   <v>       0.00231481 </v>
   <v>       0.00231481 </v>
   <v>       0.00115741 </v>
  </varray>
 </kpoints>
 <parameters>
  <separator name="general" >
   <i type="string" name="SYSTEM">gr</i>
   <i type="logical" name="LCOMPAT"> F  </i>
  </separator>
  <separator name="electronic" >
   <i type="string" name="PREC">accura</i>
   <i name="ENMAX">   2000.00000000</i>
   <i name="ENAUG">    644.87300000</i>
   <i name="EDIFF">      0.00000000</i>
   <i type="int" name="IALGO">    68</i>
   <i type="int" name="IWAVPR">    11</i>
   <i type="int" name="NBANDS">    12</i>
   <i name="NELECT">     16.00000000</i>
   <i type="int" name="TURBO">     0</i>
   <i type="int" name="IRESTART">     0</i>
   <i type="int" name="NREBOOT">     0</i>
   <i type="int" name="NMIN">     0</i>
   <i name="EREF">      0.00000000</i>
   <separator name="electronic smearing" >
    <i type="int" name="ISMEAR">     0</i>
    <i name="SIGMA">      0.05000000</i>
    <i name="KSPACING">      0.50000000</i>
    <i type="logical" name="KGAMMA"> T  </i>
   </separator>
   <separator name="electronic projectors" >
    <i type="logical" name="LREAL"> F  </i>
    <v name="ROPT">      0.00000000</v>
    <i type="int" name="LMAXPAW">  -100</i>
    <i type="int" name="LMAXMIX">     2</i>
    <i type="logical" name="NLSPLINE"> F  </i>
   </separator>
   <separator name="electronic startup" >
    <i type="int" name="ISTART">     0</i>
    <i type="int" name="ICHARG">     2</i>
    <i type="int" name="INIWAV">     1</i>
   </separator>
   <separator name="electronic spin" >
    <i type="int" name="ISPIN">     1</i>
    <i type="logical" name="LNONCOLLINEAR"> F  </i>
    <v name="MAGMOM">      1.00000000      1.00000000      1.00000000      1.00000000</v>
    <i name="NUPDOWN">     -1.00000000</i>
    <i type="logical" name="LSORBIT"> F  </i>
    <v name="SAXIS">      0.00000000      0.00000000      1.00000000</v>
    <i type="logical" name="LSPIRAL"> F  </i>
    <v name="QSPIRAL">      0.00000000      0.00000000      0.00000000</v>
    <i type="logical" name="LZEROZ"> F  </i>
   </separator>
   <separator name="electronic exchange-correlation" >
    <i type="logical" name="LASPH"> F  </i>
    <i type="logical" name="LMETAGGA"> F  </i>
   </separator>
   <separator name="electronic convergence" >
    <i type="int" name="NELM">   100</i>
    <i type="int" name="NELMDL">    -3</i>
    <i type="int" name="NELMIN">     5</i>
    <i name="ENINI">   2000.00000000</i>
    <separator name="electronic convergence detail" >
     <i type="logical" name="LDIAG"> T  </i>
     <i type="logical" name="LSUBROT"> F  </i>
     <i name="WEIMIN">      0.00100000</i>
     <i name="EBREAK">      0.00000000</i>
     <i name="DEPER">      0.30000000</i>
     <i type="int" name="NRMM">     4</i>
     <i name="TIME">      0.40000000</i>
    </separator>
   </separator>
   <separator name="electronic mixer" >
    <i name="AMIX">      0.40000000</i>
    <i name="BMIX">      1.00000000</i>
    <i name="AMIN">      0.10000000</i>
    <i name="AMIX_MAG">      1.60000000</i>
    <i name="BMIX_MAG">      1.00000000</i>
    <separator name="electronic mixer details" >
     <i type="int" name="IMIX">     4</i>
     <i type="int" name="MAXMIX">   -45</i>
     <i name="WC">    100.00000000</i>
     <i type="int" name="INIMIX">     1</i>
     <i type="int" name="MIXPRE">     1</i>
     <i type="int" name="MREMOVE">     5</i>
    </separator>
   </separator>
   <separator name="electronic dipolcorrection" >
    <i type="logical" name="LDIPOL"> F  </i>
    <i type="logical" name="LMONO"> F  </i>
    <i type="int" name="IDIPOL">     0</i>
    <i name="EPSILON">      1.00000000</i>
    <v name="DIPOL">   -100.00000000   -100.00000000   -100.00000000</v>
    <i name="EFIELD">      0.00000000</i>
   </separator>
  </separator>
  <separator name="grids" >
   <i type="int" name="NGX">    64</i>
   <i type="int" name="NGY">    40</i>
   <i type="int" name="NGZ">   288</i>
   <i type="int" name="NGXF">   128</i>
   <i type="int" name="NGYF">    80</i>
   <i type="int" name="NGZF">   576</i>
   <i type="logical" name="ADDGRID"> F  </i>
  </separator>
  <separator name="ionic" >
   <i type="int" name="NSW">   400</i>
   <i type="int" name="IBRION">     1</i>
   <i type="int" name="ISIF">     2</i>
   <i name="PSTRESS">      0.00000000</i>
   <i name="EDIFFG">     -0.00000100</i>
   <i type="int" name="NFREE">     0</i>
   <i name="POTIM">      0.50000000</i>
   <i name="SMASS">     -3.00000000</i>
   <i name="SCALEE">      1.00000000</i>
  </separator>
  <separator name="ionic md" >
   <i name="TEBEG">      0.00010000</i>
   <i name="TEEND">      0.00010000</i>
   <i type="int" name="NBLOCK">     1</i>
   <i type="int" name="KBLOCK">   400</i>
   <i type="int" name="NPACO">   256</i>
   <i name="APACO">     16.00000000</i>
  </separator>
  <separator name="symmetry" >
   <i type="int" name="ISYM">     2</i>
   <i name="SYMPREC">      0.00001000</i>
  </separator>
  <separator name="dos" >
   <i type="logical" name="LORBIT"> F  </i>
   <v name="RWIGS">     -1.00000000</v>
   <i type="int" name="NEDOS">   301</i>
   <i name="EMIN">     10.00000000</i>
   <i name="EMAX">    -10.00000000</i>
   <i name="EFERMI">      0.00000000</i>
  </separator>
  <separator name="writing" >
   <i type="int" name="NWRITE">     2</i>
   <i type="logical" name="LWAVE"> F  </i>
   <i type="logical" name="LCHARG"> F  </i>
   <i type="logical" name="LPARD"> F  </i>
   <i type="logical" name="LVTOT"> F  </i>
   <i type="logical" name="LVHAR"> F  </i>
   <i type="logical" name="LELF"> F  </i>
   <i type="logical" name="LOPTICS"> F  </i>
   <v name="STM">      0.00000000      0.00000000      0.00000000      0.00000000      0.00000000      0.00000000      0.00000000</v>
  </separator>
  <separator name="performance" >
   <i type="int" name="NPAR">     4</i>
   <i type="int" name="NSIM">     4</i>
   <i type="int" name="NBLK">    -1</i>
   <i type="logical" name="LPLANE"> T  </i>
   <i type="logical" name="LSCALAPACK"> F  </i>
   <i type="logical" name="LSCAAWARE"> F  </i>
   <i type="logical" name="LSCALU"> F  </i>
   <i type="logical" name="LASYNC"> F  </i>
   <i type="logical" name="LORBITALREAL"> F  </i>
  </separator>
  <separator name="miscellaneous" >
   <i type="int" name="IDIOT">     3</i>
   <i type="logical" name="LMUSIC"> F  </i>
   <v name="POMASS">     12.01100000</v>
   <v name="DARWINR">      0.00000000</v>
   <v name="DARWINV">      1.00000000</v>
   <i type="logical" name="LCORR"> T  </i>
  </separator>
  <i type="logical" name="GGA_COMPAT"> T  </i>
  <i type="logical" name="LBERRY"> F  </i>
  <i type="int" name="ICORELEVEL">     0</i>
  <i type="logical" name="LDAU"> F  </i>
  <i type="int" name="I_CONSTRAINED_M">     0</i>
  <separator name="electronic exchange-correlation" >
   <i type="string" name="GGA">--</i>
   <i type="int" name="VOSKOWN">     0</i>
   <i type="logical" name="LHFCALC"> F  </i>
   <i type="string" name="PRECFOCK"></i>
   <i type="logical" name="LSYMGRAD"> F  </i>
   <i type="logical" name="LHFONE"> F  </i>
   <i type="logical" name="LRHFCALC"> F  </i>
   <i type="logical" name="LTHOMAS"> F  </i>
   <i type="logical" name="LMODELHF"> F  </i>
   <i name="ENCUT4O">     -1.00000000</i>
   <i type="int" name="EXXOEP">     0</i>
   <i type="int" name="FOURORBIT">     0</i>
   <i name="AEXX">      0.00000000</i>
   <i name="HFALPHA">      0.00000000</i>
   <i name="MCALPHA">      0.00000000</i>
   <i name="ALDAX">      1.00000000</i>
   <i name="AGGAX">      1.00000000</i>
   <i name="ALDAC">      1.00000000</i>
   <i name="AGGAC">      1.00000000</i>
   <i type="int" name="NKREDX">     1</i>
   <i type="int" name="NKREDY">     1</i>
   <i type="int" name="NKREDZ">     1</i>
   <i type="logical" name="SHIFTRED"> F  </i>
   <i type="logical" name="ODDONLY"> F  </i>
   <i type="logical" name="EVENONLY"> F  </i>
   <i type="int" name="LMAXFOCK">     0</i>
   <i type="int" name="NMAXFOCKAE">     0</i>
   <i type="logical" name="LFOCKAEDFT"> F  </i>
   <i name="HFSCREEN">      0.00000000</i>
   <i name="HFSCREENC">      0.00000000</i>
   <i type="int" name="NBANDSGWLOW">     0</i>
  </separator>
  <separator name="vdW DFT" >
   <i type="logical" name="LUSE_VDW"> F  </i>
   <i name="Zab_VDW">     -0.84910000</i>
   <i name="PARAM1">      0.12340000</i>
   <i name="PARAM2">      1.00000000</i>
   <i name="PARAM3">      0.00000000</i>
  </separator>
  <separator name="model GW" >
   <i type="int" name="MODEL_GW">     0</i>
   <i name="MODEL_EPS0">     31.62568521</i>
   <i name="MODEL_ALPHA">      1.00000000</i>
  </separator>
  <separator name="linear response parameters" >
   <i type="logical" name="LEPSILON"> F  </i>
   <i type="logical" name="LRPA"> F  </i>
   <i type="logical" name="LNABLA"> F  </i>
   <i type="logical" name="LVEL"> F  </i>
   <i type="int" name="KINTER">     0</i>
   <i name="CSHIFT">      0.10000000</i>
   <i name="OMEGAMAX">     -1.00000000</i>
   <i name="DEG_THRESHOLD">      0.00200000</i>
  </separator>
  <separator name="orbital magnetization" >
   <i type="logical" name="NUCIND"> F  </i>
   <v name="MAGPOS">      0.00000000      0.00000000      0.00000000</v>
   <i type="logical" name="LNICSALL"> T  </i>
   <i type="logical" name="ORBITALMAG"> F  </i>
   <i type="logical" name="LMAGBLOCH"> F  </i>
   <i type="logical" name="LCHIMAG"> F  </i>
   <i type="logical" name="LGAUGE"> T  </i>
   <i type="int" name="MAGATOM">     0</i>
   <v name="MAGDIPOL">      0.00000000      0.00000000      0.00000000</v>
   <v name="AVECCONST">      0.00000000      0.00000000      0.00000000</v>
  </separator>
  <separator name="response functions" >
   <i type="logical" name="LADDER"> F  </i>
   <i type="logical" name="LFXC"> F  </i>
   <i type="logical" name="LHARTREE"> T  </i>
   <i type="int" name="IBSE">     0</i>
   <i type="logical" name="LTCTE"> F  </i>
   <i type="logical" name="LTETE"> F  </i>
   <i type="logical" name="LTRIPLET"> F  </i>
   <i type="logical" name="LFXCEPS"> F  </i>
   <i type="logical" name="LFXHEG"> F  </i>
   <i type="logical" name="L2ORDER"> F  </i>
   <i type="logical" name="LUSEW"> F  </i>
   <i name="ENCUTGW">     -2.00000000</i>
   <i name="ENCUTGWSOFT">     -2.00000000</i>
   <i name="ENCUTLF">     -1.00000000</i>
   <i type="int" name="LMAXMP2">    -1</i>
   <i name="SCISSOR">      0.00000000</i>
   <i type="int" name="NOMEGA">     0</i>
   <i type="int" name="NOMEGAR">     0</i>
   <i type="int" name="NBANDSGW">    -1</i>
   <i type="int" name="NBANDSO">    -1</i>
   <i type="int" name="NBANDSV">    -1</i>
   <i type="int" name="NELM">   100</i>
   <i type="int" name="DIM">     3</i>
   <i type="int" name="ANTIRES">     0</i>
   <i name="OMEGAMAX">    -30.00000000</i>
   <i name="OMEGAMIN">    -30.00000000</i>
   <i name="OMEGATL">   -200.00000000</i>
   <i type="int" name="OMEGAGRID">     0</i>
   <i name="CSHIFT">     -0.10000000</i>
   <i type="logical" name="SELFENERGY"> F  </i>
   <i type="logical" name="LSPECTRAL"> F  </i>
   <i type="logical" name="ODDONLYGW"> F  </i>
   <i type="logical" name="EVENONLYGW"> F  </i>
   <i type="int" name="NKREDLFX">     1</i>
   <i type="int" name="NKREDLFY">     1</i>
   <i type="int" name="NKREDLFZ">     1</i>
   <i type="int" name="MAXMEM">  1800</i>
   <i type="int" name="TELESCOPE">     0</i>
   <i type="int" name="TAUPAR">     1</i>
  </separator>
  <separator name="External order field" >
   <i name="OFIELD_KAPPA">      0.00000000</i>
   <v name="OFIELD_K">      0.00000000      0.00000000      0.00000000</v>
   <i name="OFIELD_Q6_NEAR">      0.00000000</i>
   <i name="OFIELD_Q6_FAR">      0.00000000</i>
   <i name="OFIELD_A">      0.00000000</i>
  </separator>
 </parameters>
 <atominfo>
  <atoms>       4 </atoms>
  <types>       1 </types>
  <array name="atoms" >
   <dimension dim="1">ion</dimension>
   <field type="string">element</field>
   <field type="int">atomtype</field>
   <set>
    <rc><c>C </c><c>   1</c></rc>
    <rc><c>C </c><c>   1</c></rc>
    <rc><c>C </c><c>   1</c></rc>
    <rc><c>C </c><c>   1</c></rc>
   </set>
  </array>
  <array name="atomtypes" >
   <dimension dim="1">type</dimension>
   <field type="int">atomspertype</field>
   <field type="string">element</field>
   <field>mass</field>
   <field>valence</field>
   <field type="string">pseudopotential</field>
   <set>
    <rc><c>   4</c><c>C </c><c>     12.01100000</c><c>      4.00000000</c><c> PAW_PBE C 08Apr2002                    </c></rc>
   </set>
  </array>
 </atominfo>
 <structure name="initialpos" >
  <crystal>
   <varray name="basis" >
    <v>       4.25842870       0.00000000       0.00000000 </v>
    <v>       0.00000000       2.51714120       0.00000000 </v>
    <v>       0.00000000       0.00000000      19.66942779 </v>
   </varray>
   <i name="volume">    210.83790140 </i>
   <varray name="rec_basis" >
    <v>       0.23482840       0.00000000       0.00000000 </v>
    <v>       0.00000000       0.39727608       0.00000000 </v>
    <v>       0.00000000       0.00000000       0.05084032 </v>
   </varray>
  </crystal>
  <varray name="positions" >
   <v>       0.00051919       0.00000000       0.00000000 </v>
   <v>       0.16614747       0.50000000       0.00000000 </v>
   <v>       0.50051919       0.50000000       0.00000000 </v>
   <v>       0.66614747       0.00000000       0.00000000 </v>
  </varray>
 </structure>
 <calculation>
  <scstep>
   <time name="dav">  325.84  326.36</time>
   <time name="total">  328.62  329.16</time>
   <energy>
    <i name="alphaZ">      6.18334092 </i>
    <i name="ewald">   2475.73046590 </i>
    <i name="hartreedc">  -2904.43868482 </i>
    <i name="XCdc">     54.87135332 </i>
    <i name="pawpsdc">    151.32577238 </i>
    <i name="pawaedc">   -155.92769107 </i>
    <i name="eentropy">     -0.00191581 </i>
    <i name="bandstr">    -29.41323235 </i>
    <i name="atom">    588.62352690 </i>
    <i name="e_fr_energy">    186.95293538 </i>
    <i name="e_wo_entrp">    186.95485120 </i>
    <i name="e_0_energy">    186.95389329 </i>
   </energy>
  </scstep>
  <scstep>
   <time name="dav">  491.75  494.79</time>
   <time name="total">  491.76  494.80</time>
   <energy>
    <i name="e_fr_energy">     -9.22627610 </i>
    <i name="e_wo_entrp">     -9.22603227 </i>
    <i name="e_0_energy">     -9.22615419 </i>
   </energy>
  </scstep>
  <scstep>
   <time name="dav">  375.74  378.43</time>
   <time name="total">  410.46  413.33</time>
   <energy>
    <i name="e_fr_energy">    -38.14598111 </i>
    <i name="e_wo_entrp">    -38.14598082 </i>
    <i name="e_0_energy">    -38.14598096 </i>
   </energy>
  </scstep>
  <scstep>
   <time name="diag">   89.16   89.25</time>
   <time name="diis">  378.36  378.90</time>
   <time name="orth">    3.08    3.09</time>
   <time name="total">  508.07  508.76</time>
   <energy>
    <i name="e_fr_energy">    -37.60609691 </i>
    <i name="e_wo_entrp">    -37.60609675 </i>
    <i name="e_0_energy">    -37.60609683 </i>
   </energy>
  </scstep>
  <scstep>
   <time name="diag">   89.18   89.26</time>
   <time name="diis">  375.04  375.60</time>
   <time name="orth">    3.07    3.08</time>
   <time name="total">  504.54  505.45</time>
   <energy>
    <i name="e_fr_energy">    -36.89014205 </i>
    <i name="e_wo_entrp">    -36.89014167 </i>
    <i name="e_0_energy">    -36.89014186 </i>
   </energy>
  </scstep>
  <scstep>
   <time name="diag">   88.87   89.28</time>
   <time name="diis">  408.46  411.01</time>
   <time name="orth">    3.06    3.08</time>
   <time name="total">  537.65  540.88</time>
   <energy>
    <i name="e_fr_energy">    -36.89251236 </i>
    <i name="e_wo_entrp">    -36.89251200 </i>
    <i name="e_0_energy">    -36.89251218 </i>
   </energy>
  </scstep>
  <scstep>
   <time name="diag">   89.21   89.28</time>
   <time name="diis">  373.43  373.86</time>
   <time name="orth">    3.07    3.08</time>
   <time name="total">  503.21  503.81</time>
   <energy>
    <i name="e_fr_energy">    -36.88344942 </i>
    <i name="e_wo_entrp">    -36.88344914 </i>
    <i name="e_0_energy">    -36.88344928 </i>
   </energy>
  </scstep>
  <scstep>
   <time name="diag">   89.00   89.30</time>
   <time name="diis">  375.41  378.07</time>
   <time name="orth">    3.06    3.06</time>
   <time name="total">  504.73  508.02</time>
   <energy>
    <i name="e_fr_energy">    -36.87851655 </i>
    <i name="e_wo_entrp">    -36.87851625 </i>
    <i name="e_0_energy">    -36.87851640 </i>
   </energy>
  </scstep>
  <scstep>
   <time name="diag">   88.61   89.22</time>
   <time name="diis">  360.16  361.26</time>
   <time name="orth">    3.08    3.09</time>
   <time name="total">  489.13  491.13</time>
   <energy>
    <i name="e_fr_energy">    -36.87827864 </i>
    <i name="e_wo_entrp">    -36.87827829 </i>
    <i name="e_0_energy">    -36.87827847 </i>
   </energy>
  </scstep>
  <scstep>
   <time name="diag">   88.84   89.22</time>
   <time name="diis">  358.61  361.99</time>
   <time name="orth">    3.07    3.08</time>
   <time name="total">  487.56  491.76</time>
   <energy>
    <i name="e_fr_energy">    -36.87818316 </i>
    <i name="e_wo_entrp">    -36.87818283 </i>
    <i name="e_0_energy">    -36.87818299 </i>
   </energy>
  </scstep>
  <scstep>
   <time name="diag">   88.40   89.20</time>
   <time name="diis">  363.13  364.18</time>
   <time name="orth">    3.08    3.08</time>
   <time name="total">  491.96  494.09</time>
   <energy>
    <i name="e_fr_energy">    -36.88052828 </i>
    <i name="e_wo_entrp">    -36.88052797 </i>
    <i name="e_0_energy">    -36.88052813 </i>
   </energy>
  </scstep>
  <scstep>
   <time name="diag">   88.93   89.19</time>
   <time name="diis">  359.61  363.39</time>
   <time name="orth">    3.07    3.07</time>
   <time name="total">  488.71  493.15</time>
   <energy>
    <i name="e_fr_energy">    -36.88100431 </i>
    <i name="e_wo_entrp">    -36.88100399 </i>
    <i name="e_0_energy">    -36.88100415 </i>
   </energy>
  </scstep>
  <scstep>
   <time name="diag">   88.87   89.16</time>
   <time name="diis">  366.60  370.08</time>
   <time name="orth">    3.08    3.11</time>
   <time name="total">  495.59  499.87</time>
   <energy>
    <i name="e_fr_energy">    -36.88126917 </i>
    <i name="e_wo_entrp">    -36.88126885 </i>
    <i name="e_0_energy">    -36.88126901 </i>
   </energy>
  </scstep>
  <scstep>
   <time name="diag">   88.71   89.13</time>
   <time name="diis">  363.48  365.27</time>
   <time name="orth">    3.06    3.06</time>
   <time name="total">  492.38  495.02</time>
   <energy>
    <i name="e_fr_energy">    -36.88135121 </i>
    <i name="e_wo_entrp">    -36.88135089 </i>
    <i name="e_0_energy">    -36.88135105 </i>
   </energy>
  </scstep>
  <scstep>
   <time name="diag">   88.48   89.10</time>
   <time name="diis">  363.80  366.72</time>
   <time name="orth">    3.08    3.10</time>
   <time name="total">  492.41  496.44</time>
   <energy>
    <i name="e_fr_energy">    -36.88136284 </i>
    <i name="e_wo_entrp">    -36.88136252 </i>
    <i name="e_0_energy">    -36.88136268 </i>
   </energy>
  </scstep>
  <scstep>
   <time name="diag">   88.61   89.14</time>
   <time name="diis">  359.30  361.89</time>
   <time name="orth">    3.06    3.08</time>
   <time name="total">  488.29  491.70</time>
   <energy>
    <i name="e_fr_energy">    -36.88137557 </i>
    <i name="e_wo_entrp">    -36.88137525 </i>
    <i name="e_0_energy">    -36.88137541 </i>
   </energy>
  </scstep>
  <scstep>
   <time name="diag">   88.49   89.35</time>
   <time name="diis">  372.18  373.15</time>
   <time name="orth">    3.07    3.08</time>
   <time name="total">  501.19  503.19</time>
   <energy>
    <i name="e_fr_energy">    -36.88138155 </i>
    <i name="e_wo_entrp">    -36.88138123 </i>
    <i name="e_0_energy">    -36.88138139 </i>
   </energy>
  </scstep>
  <scstep>
   <time name="diag">   89.02   89.27</time>
   <time name="diis">  359.04  360.92</time>
   <time name="orth">    3.07    3.07</time>
   <time name="total">  488.28  490.82</time>
   <energy>
    <i name="e_fr_energy">    -36.88138265 </i>
    <i name="e_wo_entrp">    -36.88138232 </i>
    <i name="e_0_energy">    -36.88138248 </i>
   </energy>
  </scstep>
  <scstep>
   <time name="diag">   88.69   89.38</time>
   <time name="diis">  357.67  361.92</time>
   <time name="orth">    3.06    3.06</time>
   <time name="total">  486.50  491.94</time>
   <energy>
    <i name="e_fr_energy">    -36.88138342 </i>
    <i name="e_wo_entrp">    -36.88138310 </i>
    <i name="e_0_energy">    -36.88138326 </i>
   </energy>
  </scstep>
  <scstep>
   <time name="diag">   88.73   89.39</time>
   <time name="diis">  277.87  281.20</time>
   <time name="orth">    3.06    3.06</time>
   <time name="total">  406.94  411.32</time>
   <energy>
    <i name="e_fr_energy">    -36.88138348 </i>
    <i name="e_wo_entrp">    -36.88138316 </i>
    <i name="e_0_energy">    -36.88138332 </i>
   </energy>
  </scstep>
  <scstep>
   <time name="diag">   89.11   89.38</time>
   <time name="diis">  272.70  273.74</time>
   <time name="orth">    3.06    3.06</time>
   <time name="total">  402.27  403.77</time>
   <energy>
    <i name="e_fr_energy">    -36.88138349 </i>
    <i name="e_wo_entrp">    -36.88138317 </i>
    <i name="e_0_energy">    -36.88138333 </i>
   </energy>
  </scstep>
  <scstep>
   <time name="diag">   89.11   89.37</time>
   <time name="diis">  248.23  248.83</time>
   <time name="orth">    3.07    3.08</time>
   <time name="total">  377.95  378.85</time>
   <energy>
    <i name="e_fr_energy">    -36.88138349 </i>
    <i name="e_wo_entrp">    -36.88138317 </i>
    <i name="e_0_energy">    -36.88138333 </i>
   </energy>
  </scstep>
  <scstep>
   <time name="diag">   89.21   89.32</time>
   <time name="diis">  235.78  236.04</time>
   <time name="orth">    3.06    3.06</time>
   <time name="total">  365.52  366.81</time>
   <energy>
    <i name="e_fr_energy">    -36.88138349 </i>
    <i name="e_wo_entrp">    -36.88138317 </i>
    <i name="e_0_energy">    -36.88138333 </i>
   </energy>
  </scstep>
  <scstep>
   <time name="diag">   89.24   89.36</time>
   <time name="diis">  222.18  223.03</time>
   <time name="orth">    3.08    3.08</time>
   <time name="total">  351.91  353.01</time>
   <energy>
    <i name="e_fr_energy">    -36.88138349 </i>
    <i name="e_wo_entrp">    -36.88138317 </i>
    <i name="e_0_energy">    -36.88138333 </i>
   </energy>
  </scstep>
  <scstep>
   <time name="diag">   89.10   89.36</time>
   <time name="diis">  211.16  211.99</time>
   <time name="orth">    3.07    3.11</time>
   <time name="total">  305.99  307.14</time>
   <energy>
    <i name="alphaZ">      6.18334092 </i>
    <i name="ewald">   2475.73046590 </i>
    <i name="hartreedc">  -2969.95135367 </i>
    <i name="XCdc">     57.21533473 </i>
    <i name="pawpsdc">    270.39474301 </i>
    <i name="pawaedc">   -275.51331731 </i>
    <i name="eentropy">     -0.00000032 </i>
    <i name="bandstr">   -189.56412367 </i>
    <i name="atom">    588.62352690 </i>
    <i name="e_fr_energy">    -36.88138349 </i>
    <i name="e_wo_entrp">    -36.88138317 </i>
    <i name="e_0_energy">    -36.88138333 </i>
   </energy>
  </scstep>
  <structure>
   <crystal>
    <varray name="basis" >
     <v>       4.25842870       0.00000000       0.00000000 </v>
     <v>       0.00000000       2.51714120       0.00000000 </v>
     <v>       0.00000000       0.00000000      19.66942779 </v>
    </varray>
    <i name="volume">    210.83790140 </i>
    <varray name="rec_basis" >
     <v>       0.23482840       0.00000000       0.00000000 </v>
     <v>       0.00000000       0.39727608       0.00000000 </v>
     <v>       0.00000000       0.00000000       0.05084032 </v>
    </varray>
   </crystal>
   <varray name="positions" >
    <v>       0.00051919       0.00000000       0.00000000 </v>
    <v>       0.16614747       0.50000000       0.00000000 </v>
    <v>       0.50051919       0.50000000       0.00000000 </v>
    <v>       0.66614747       0.00000000       0.00000000 </v>
   </varray>
  </structure>
  <varray name="forces" >
   <v>       0.00166360       0.00000000       0.00000000 </v>
   <v>      -0.00166360       0.00000000       0.00000000 </v>
   <v>       0.00166360      -0.00000000       0.00000000 </v>
   <v>      -0.00166360      -0.00000000       0.00000000 </v>
  </varray>
  <varray name="stress" >
   <v>       0.00969615       0.00000000       0.00000000 </v>
   <v>       0.00000000     -33.30181783       0.00000000 </v>
   <v>       0.00000000       0.00000000      -0.01020064 </v>
  </varray>
  <energy>
   <i name="e_fr_energy">    -36.88138349 </i>
   <i name="e_wo_entrp">    -36.88138333 </i>
   <i name="e_0_energy">     -0.00000032 </i>
  </energy>
  <time name="totalsc">11508.0811570.89</time>
 </calculation>
 <calculation>
  <scstep>
   <time name="dav">  336.94  338.05</time>
   <time name="total">  374.54  375.66</time>
   <energy>
    <i name="alphaZ">      6.18334092 </i>
    <i name="ewald">   2475.72908618 </i>
    <i name="hartreedc">  -2969.95075397 </i>
    <i name="XCdc">     57.21529528 </i>
    <i name="pawpsdc">    270.39474280 </i>
    <i name="pawaedc">   -275.51331707 </i>
    <i name="eentropy">     -0.00000036 </i>
    <i name="bandstr">   -189.56330336 </i>
    <i name="atom">    588.62352690 </i>
    <i name="e_fr_energy">    -36.88138267 </i>
    <i name="e_wo_entrp">    -36.88138231 </i>
    <i name="e_0_energy">    -36.88138249 </i>
   </energy>
  </scstep>
  <scstep>
   <time name="diag">   89.27   89.29</time>
   <time name="diis">  361.99  362.07</time>
   <time name="orth">    3.06    3.06</time>
   <time name="total">  491.90  492.02</time>
   <energy>
    <i name="e_fr_energy">    -36.88138272 </i>
    <i name="e_wo_entrp">    -36.88138236 </i>
    <i name="e_0_energy">    -36.88138254 </i>
   </energy>
  </scstep>
  <scstep>
   <time name="diag">   89.18   89.24</time>
   <time name="diis">  364.41  364.49</time>
   <time name="orth">    3.06    3.06</time>
   <time name="total">  494.24  494.43</time>
   <energy>
    <i name="e_fr_energy">    -36.88138267 </i>
    <i name="e_wo_entrp">    -36.88138231 </i>
    <i name="e_0_energy">    -36.88138249 </i>
   </energy>
  </scstep>
  <scstep>
   <time name="diag">   89.24   89.27</time>
   <time name="diis">  370.34  370.43</time>
   <time name="orth">    3.06    3.06</time>
   <time name="total">  500.28  500.42</time>
   <energy>
    <i name="e_fr_energy">    -36.88138267 </i>
    <i name="e_wo_entrp">    -36.88138231 </i>
    <i name="e_0_energy">    -36.88138249 </i>
   </energy>
  </scstep>
  <scstep>
   <time name="diag">   89.28   89.30</time>
   <time name="diis">  326.75  326.82</time>
   <time name="orth">    3.08    3.08</time>
   <time name="total">  456.74  456.88</time>
   <energy>
    <i name="e_fr_energy">    -36.88138267 </i>
    <i name="e_wo_entrp">    -36.88138231 </i>
    <i name="e_0_energy">    -36.88138249 </i>
   </energy>
  </scstep>
  <scstep>
   <time name="diag">   89.27   89.28</time>
   <time name="diis">  243.62  243.68</time>
   <time name="orth">    3.06    3.06</time>
   <time name="total">  373.47  373.58</time>
   <energy>
    <i name="e_fr_energy">    -36.88138267 </i>
    <i name="e_wo_entrp">    -36.88138231 </i>
    <i name="e_0_energy">    -36.88138249 </i>
   </energy>
  </scstep>
  <scstep>
   <time name="diag">   89.24   89.27</time>
   <time name="diis">  240.46  240.51</time>
   <time name="orth">    3.06    3.06</time>
   <time name="total">  370.37  370.46</time>
   <energy>
    <i name="e_fr_energy">    -36.88138267 </i>
    <i name="e_wo_entrp">    -36.88138231 </i>
    <i name="e_0_energy">    -36.88138249 </i>
   </energy>
  </scstep>
  <scstep>
   <time name="diag">   89.23   89.24</time>
   <time name="diis">  227.27  227.32</time>
   <time name="orth">    3.08    3.08</time>
   <time name="total">  357.12  357.23</time>
   <energy>
    <i name="e_fr_energy">    -36.88138267 </i>
    <i name="e_wo_entrp">    -36.88138231 </i>
    <i name="e_0_energy">    -36.88138249 </i>
   </energy>
  </scstep>
  <scstep>
   <time name="diag">   89.27   89.28</time>
   <time name="diis">  220.41  220.55</time>
   <time name="orth">    3.06    3.08</time>
   <time name="total">  315.41  315.60</time>
   <energy>
    <i name="alphaZ">      6.18334092 </i>
    <i name="ewald">   2475.72908618 </i>
    <i name="hartreedc">  -2969.95018471 </i>
    <i name="XCdc">     57.21527176 </i>
    <i name="pawpsdc">    270.39235912 </i>
    <i name="pawaedc">   -275.51092305 </i>
    <i name="eentropy">     -0.00000036 </i>
    <i name="bandstr">   -189.56385945 </i>
    <i name="atom">    588.62352690 </i>
    <i name="e_fr_energy">    -36.88138267 </i>
    <i name="e_wo_entrp">    -36.88138231 </i>
    <i name="e_0_energy">    -36.88138249 </i>
   </energy>
  </scstep>
  <structure>
   <crystal>
    <varray name="basis" >
     <v>       4.25842870       0.00000000       0.00000000 </v>
     <v>       0.00000000       2.51714120       0.00000000 </v>
     <v>       0.00000000       0.00000000      19.66942779 </v>
    </varray>
    <i name="volume">    210.83790140 </i>
    <varray name="rec_basis" >
     <v>       0.23482840       0.00000000       0.00000000 </v>
     <v>       0.00000000       0.39727608       0.00000000 </v>
     <v>       0.00000000       0.00000000       0.05084032 </v>
    </varray>
   </crystal>
   <varray name="positions" >
    <v>       0.00053804       0.00000000       0.00000000 </v>
    <v>       0.16612863       0.50000000       0.00000000 </v>
    <v>       0.50053804       0.50000000       0.00000000 </v>
    <v>       0.66612863      -0.00000000       0.00000000 </v>
   </varray>
  </structure>
  <varray name="forces" >
   <v>      -0.00671604       0.00000000      -0.00000000 </v>
   <v>       0.00671604       0.00000000       0.00000000 </v>
   <v>      -0.00671604       0.00000000      -0.00000000 </v>
   <v>       0.00671604      -0.00000000       0.00000000 </v>
  </varray>
  <varray name="stress" >
   <v>      -0.02261380       0.00000000       0.00000000 </v>
   <v>       0.00000000     -33.28023274       0.00000000 </v>
   <v>       0.00000000       0.00000000      -0.01022645 </v>
  </varray>
  <energy>
   <i name="e_fr_energy">    -36.88138267 </i>
   <i name="e_wo_entrp">    -36.88138249 </i>
   <i name="e_0_energy">     -0.00000036 </i>
  </energy>
  <time name="totalsc"> 3840.06 3842.85</time>
 </calculation>
 <calculation>
  <scstep>
   <time name="dav">  346.62  347.57</time>
   <time name="total">  384.09  385.08</time>
   <energy>
    <i name="alphaZ">      6.18334092 </i>
    <i name="ewald">   2475.73019127 </i>
    <i name="hartreedc">  -2969.95064959 </i>
    <i name="XCdc">     57.21530320 </i>
    <i name="pawpsdc">    270.39235846 </i>
    <i name="pawaedc">   -275.51092239 </i>
    <i name="eentropy">     -0.00000033 </i>
    <i name="bandstr">   -189.56453198 </i>
    <i name="atom">    588.62352690 </i>
    <i name="e_fr_energy">    -36.88138352 </i>
    <i name="e_wo_entrp">    -36.88138320 </i>
    <i name="e_0_energy">    -36.88138336 </i>
   </energy>
  </scstep>
  <scstep>
   <time name="diag">   89.33   89.35</time>
   <time name="diis">  361.60  361.68</time>
   <time name="orth">    3.08    3.08</time>
   <time name="total">  491.55  491.67</time>
   <energy>
    <i name="e_fr_energy">    -36.88138356 </i>
    <i name="e_wo_entrp">    -36.88138323 </i>
    <i name="e_0_energy">    -36.88138339 </i>
   </energy>
  </scstep>
  <scstep>
   <time name="diag">   89.34   89.36</time>
   <time name="diis">  364.85  364.97</time>
   <time name="orth">    3.08    3.08</time>
   <time name="total">  494.73  494.92</time>
   <energy>
    <i name="e_fr_energy">    -36.88138355 </i>
    <i name="e_wo_entrp">    -36.88138322 </i>
    <i name="e_0_energy">    -36.88138338 </i>
   </energy>
  </scstep>
  <scstep>
   <time name="diag">   89.26   89.31</time>
   <time name="diis">  370.32  370.57</time>
   <time name="orth">    3.09    3.09</time>
   <time name="total">  500.16  500.48</time>
   <energy>
    <i name="e_fr_energy">    -36.88138354 </i>
    <i name="e_wo_entrp">    -36.88138321 </i>
    <i name="e_0_energy">    -36.88138338 </i>
   </energy>
  </scstep>
  <scstep>
   <time name="diag">   89.30   89.34</time>
   <time name="diis">  294.85  295.10</time>
   <time name="orth">    3.06    3.08</time>
   <time name="total">  424.52  425.05</time>
   <energy>
    <i name="e_fr_energy">    -36.88138354 </i>
    <i name="e_wo_entrp">    -36.88138322 </i>
    <i name="e_0_energy">    -36.88138338 </i>
   </energy>
  </scstep>
  <scstep>
   <time name="diag">   89.18   89.29</time>
   <time name="diis">  240.63  240.68</time>
   <time name="orth">    3.08    3.08</time>
   <time name="total">  370.31  370.57</time>
   <energy>
    <i name="e_fr_energy">    -36.88138354 </i>
    <i name="e_wo_entrp">    -36.88138321 </i>
    <i name="e_0_energy">    -36.88138338 </i>
   </energy>
  </scstep>
  <scstep>
   <time name="diag">   89.35   89.37</time>
   <time name="diis">  238.93  239.75</time>
   <time name="orth">    3.08    3.08</time>
   <time name="total">  368.85  369.73</time>
   <energy>
    <i name="e_fr_energy">    -36.88138354 </i>
    <i name="e_wo_entrp">    -36.88138321 </i>
    <i name="e_0_energy">    -36.88138338 </i>
   </energy>
  </scstep>
  <scstep>
   <time name="diag">   89.33   89.35</time>
   <time name="diis">  223.56  223.61</time>
   <time name="orth">    3.08    3.08</time>
   <time name="total">  353.51  353.59</time>
   <energy>
    <i name="e_fr_energy">    -36.88138354 </i>
    <i name="e_wo_entrp">    -36.88138321 </i>
    <i name="e_0_energy">    -36.88138338 </i>
   </energy>
  </scstep>
  <scstep>
   <time name="diag">   89.31   89.35</time>
   <time name="diis">  212.53  212.67</time>
   <time name="orth">    3.10    3.10</time>
   <time name="total">  342.49  342.69</time>
   <energy>
    <i name="e_fr_energy">    -36.88138354 </i>
    <i name="e_wo_entrp">    -36.88138321 </i>
    <i name="e_0_energy">    -36.88138338 </i>
   </energy>
  </scstep>
  <scstep>
   <time name="diag">   89.36   89.39</time>
   <time name="diis">  206.50  206.65</time>
   <time name="orth">    3.06    3.06</time>
   <time name="total">  301.61  301.78</time>
   <energy>
    <i name="alphaZ">      6.18334092 </i>
    <i name="ewald">   2475.73019127 </i>
    <i name="hartreedc">  -2969.95111532 </i>
    <i name="XCdc">     57.21532219 </i>
    <i name="pawpsdc">    270.39426685 </i>
    <i name="pawaedc">   -275.51283909 </i>
    <i name="eentropy">     -0.00000033 </i>
    <i name="bandstr">   -189.56407693 </i>
    <i name="atom">    588.62352690 </i>
    <i name="e_fr_energy">    -36.88138354 </i>
    <i name="e_wo_entrp">    -36.88138322 </i>
    <i name="e_0_energy">    -36.88138338 </i>
   </energy>
  </scstep>
  <structure>
   <crystal>
    <varray name="basis" >
     <v>       4.25842870       0.00000000       0.00000000 </v>
     <v>       0.00000000       2.51714120       0.00000000 </v>
     <v>       0.00000000       0.00000000      19.66942779 </v>
    </varray>
    <i name="volume">    210.83790140 </i>
    <varray name="rec_basis" >
     <v>       0.23482840       0.00000000       0.00000000 </v>
     <v>       0.00000000       0.39727608       0.00000000 </v>
     <v>       0.00000000       0.00000000       0.05084032 </v>
    </varray>
   </crystal>
   <varray name="positions" >
    <v>       0.00052293       0.00000000      -0.00000000 </v>
    <v>       0.16614373       0.50000000       0.00000000 </v>
    <v>       0.50052293       0.50000000      -0.00000000 </v>
    <v>       0.66614373      -0.00000000       0.00000000 </v>
   </varray>
  </structure>
  <varray name="forces" >
   <v>       0.00000092       0.00000000       0.00000000 </v>
   <v>      -0.00000092      -0.00000000      -0.00000000 </v>
   <v>       0.00000092      -0.00000000       0.00000000 </v>
   <v>      -0.00000092       0.00000000      -0.00000000 </v>
  </varray>
  <varray name="stress" >
   <v>       0.00326656       0.00000000       0.00000000 </v>
   <v>       0.00000000     -33.29750459       0.00000000 </v>
   <v>       0.00000000       0.00000000      -0.01017170 </v>
  </varray>
  <energy>
   <i name="e_fr_energy">    -36.88138354 </i>
   <i name="e_wo_entrp">    -36.88138338 </i>
   <i name="e_0_energy">     -0.00000033 </i>
  </energy>
  <time name="totalsc"> 4131.89 4135.95</time>
  <eigenvalues>
   <array>
    <dimension dim="1">band</dimension>
    <dimension dim="2">kpoint</dimension>
    <dimension dim="3">spin</dimension>
    <field>eigene</field>
    <field>occ</field>
    <set>
     <set comment="spin 1">
      <set comment="kpoint 1">
       <r>  -22.1144    1.0000 </r>
       <r>  -16.7646    1.0000 </r>
       <r>  -15.8844    1.0000 </r>
       <r>  -10.2514    1.0000 </r>
       <r>   -9.4183    1.0000 </r>
       <r>   -5.9566    1.0000 </r>
       <r>   -5.7471    1.0000 </r>
       <r>   -4.9439    1.0000 </r>
       <r>   -1.1276    0.0000 </r>
       <r>    0.5406    0.0000 </r>
       <r>    1.3390    0.0000 </r>
       <r>    1.7294    0.0000 </r>
      </set>
      <set comment="kpoint 2">
       <r>  -22.1041    1.0000 </r>
       <r>  -16.9542    1.0000 </r>
       <r>  -15.6797    1.0000 </r>
       <r>  -10.2391    1.0000 </r>
       <r>   -9.4079    1.0000 </r>
       <r>   -5.9801    1.0000 </r>
       <r>   -5.7878    1.0000 </r>
       <r>   -5.0134    1.0000 </r>
       <r>   -1.0431    0.0000 </r>
       <r>    0.5546    0.0000 </r>
       <r>    1.3532    0.0000 </r>
       <r>    1.7438    0.0000 </r>
      </set>
      <set comment="kpoint 3">
       <r>  -22.0730    1.0000 </r>
       <r>  -17.3151    1.0000 </r>
       <r>  -15.2737    1.0000 </r>
       <r>  -10.2023    1.0000 </r>
       <r>   -9.3769    1.0000 </r>
       <r>   -6.0493    1.0000 </r>
       <r>   -5.9083    1.0000 </r>
       <r>   -5.2049    1.0000 </r>
       <r>   -0.8066    0.0000 </r>
       <r>    0.5967    0.0000 </r>
       <r>    1.3957    0.0000 </r>
       <r>    1.7868    0.0000 </r>
      </set>
      <set comment="kpoint 4">
       <r>  -22.0213    1.0000 </r>
       <r>  -17.7050    1.0000 </r>
       <r>  -14.8089    1.0000 </r>
       <r>  -10.1409    1.0000 </r>
       <r>   -9.3253    1.0000 </r>
       <r>   -6.1604    1.0000 </r>
       <r>   -6.1044    1.0000 </r>
       <r>   -5.4822    1.0000 </r>
       <r>   -0.4550    0.0000 </r>
       <r>    0.6668    0.0000 </r>
       <r>    1.4666    0.0000 </r>
       <r>    1.8586    0.0000 </r>
      </set>
      <set comment="kpoint 5">
       <r>  -21.9489    1.0000 </r>
       <r>  -18.0928    1.0000 </r>
       <r>  -14.3169    1.0000 </r>
       <r>  -10.0550    1.0000 </r>
       <r>   -9.2534    1.0000 </r>
       <r>   -6.3695    1.0000 </r>
       <r>   -6.3076    1.0000 </r>
       <r>   -5.8104    1.0000 </r>
       <r>   -0.0240    0.0000 </r>
       <r>    0.7650    0.0000 </r>
       <r>    1.5658    0.0000 </r>
       <r>    1.9591    0.0000 </r>
      </set>
      <set comment="kpoint 6">
       <r>  -21.8560    1.0000 </r>
       <r>  -18.4696    1.0000 </r>
       <r>  -13.8074    1.0000 </r>
       <r>   -9.9449    1.0000 </r>
       <r>   -9.1616    1.0000 </r>
       <r>   -6.6959    1.0000 </r>
       <r>   -6.4845    1.0000 </r>
       <r>   -6.1645    1.0000 </r>
       <r>    0.4600    0.0000 </r>
       <r>    0.8912    0.0000 </r>
       <r>    1.6933    0.0000 </r>
       <r>    2.0883    0.0000 </r>
      </set>
      <set comment="kpoint 7">
       <r>  -21.7425    1.0000 </r>
       <r>  -18.8319    1.0000 </r>
       <r>  -13.2846    1.0000 </r>
       <r>   -9.8107    1.0000 </r>
       <r>   -9.0504    1.0000 </r>
       <r>   -7.0748    1.0000 </r>
       <r>   -6.6839    1.0000 </r>
       <r>   -6.5280    1.0000 </r>
       <r>    0.9792    0.0000 </r>
       <r>    1.0454    0.0000 </r>
       <r>    1.8490    0.0000 </r>
       <r>    2.2462    0.0000 </r>
      </set>
      <set comment="kpoint 8">
       <r>  -21.6085    1.0000 </r>
       <r>  -19.1779    1.0000 </r>
       <r>  -12.7516    1.0000 </r>
       <r>   -9.6527    1.0000 </r>
       <r>   -8.9204    1.0000 </r>
       <r>   -7.4980    1.0000 </r>
       <r>   -6.8992    1.0000 </r>
       <r>   -6.8908    1.0000 </r>
       <r>    1.2276    0.0000 </r>
       <r>    1.5210    0.0000 </r>
       <r>    2.0329    0.0000 </r>
       <r>    2.4328    0.0000 </r>
      </set>
      <set comment="kpoint 9">
       <r>  -21.4543    1.0000 </r>
       <r>  -19.5065    1.0000 </r>
       <r>  -12.2108    1.0000 </r>
       <r>   -9.4711    1.0000 </r>
       <r>   -8.7725    1.0000 </r>
       <r>   -7.9573    1.0000 </r>
       <r>   -7.2459    1.0000 </r>
       <r>   -7.1243    1.0000 </r>
       <r>    1.4377    0.0000 </r>
       <r>    2.0762    0.0000 </r>
       <r>    2.2449    0.0000 </r>
       <r>    2.6481    0.0000 </r>
      </set>
      <set comment="kpoint 10">
       <r>  -21.2797    1.0000 </r>
       <r>  -19.8171    1.0000 </r>
       <r>  -11.6646    1.0000 </r>
       <r>   -9.2663    1.0000 </r>
       <r>   -8.6076    1.0000 </r>
       <r>   -8.4454    1.0000 </r>
       <r>   -7.5890    1.0000 </r>
       <r>   -7.3536    1.0000 </r>
       <r>    1.6757    0.0000 </r>
       <r>    2.4848    0.0000 </r>
       <r>    2.6365    0.0000 </r>
       <r>    2.8921    0.0000 </r>
      </set>
      <set comment="kpoint 11">
       <r>  -21.0851    1.0000 </r>
       <r>  -20.1092    1.0000 </r>
       <r>  -11.1155    1.0000 </r>
       <r>   -9.0388    1.0000 </r>
       <r>   -8.9558    1.0000 </r>
       <r>   -8.4270    1.0000 </r>
       <r>   -7.9168    1.0000 </r>
       <r>   -7.5827    1.0000 </r>
       <r>    1.9415    0.0000 </r>
       <r>    2.7522    0.0000 </r>
       <r>    3.1647    0.0000 </r>
       <r>    3.1915    0.0000 </r>
      </set>
      <set comment="kpoint 12">
       <r>  -20.8705    1.0000 </r>
       <r>  -20.3823    1.0000 </r>
       <r>  -10.5666    1.0000 </r>
       <r>   -9.4827    1.0000 </r>
       <r>   -8.7893    1.0000 </r>
       <r>   -8.2321    1.0000 </r>
       <r>   -8.2272    1.0000 </r>
       <r>   -7.8075    1.0000 </r>
       <r>    2.2349    0.0000 </r>
       <r>    2.9038    0.0000 </r>
       <r>    3.0464    0.0000 </r>
       <r>    3.4709    0.0000 </r>
      </set>
      <set comment="kpoint 13">
       <r>  -20.6362    1.0000 </r>
       <r>  -20.6362    1.0000 </r>
       <r>  -10.0211    1.0000 </r>
       <r>  -10.0211    1.0000 </r>
       <r>   -8.5184    1.0000 </r>
       <r>   -8.5184    1.0000 </r>
       <r>   -8.0249    1.0000 </r>
       <r>   -8.0249    1.0000 </r>
       <r>    2.5558    0.0000 </r>
       <r>    2.5558    0.0000 </r>
       <r>    3.3634    0.0000 </r>
       <r>    3.3634    0.0000 </r>
      </set>
      <set comment="kpoint 14">
       <r>  -22.1013    1.0000 </r>
       <r>  -16.7532    1.0000 </r>
       <r>  -15.8738    1.0000 </r>
       <r>  -10.2358    1.0000 </r>
       <r>   -9.4771    1.0000 </r>
       <r>   -6.0108    1.0000 </r>
       <r>   -5.7789    1.0000 </r>
       <r>   -4.9280    1.0000 </r>
       <r>   -1.1333    0.0000 </r>
       <r>    0.5583    0.0000 </r>
       <r>    1.3571    0.0000 </r>
       <r>    1.7477    0.0000 </r>
      </set>
      <set comment="kpoint 15">
       <r>  -22.0909    1.0000 </r>
       <r>  -16.9427    1.0000 </r>
       <r>  -15.6693    1.0000 </r>
       <r>  -10.2235    1.0000 </r>
       <r>   -9.4667    1.0000 </r>
       <r>   -6.0376    1.0000 </r>
       <r>   -5.8156    1.0000 </r>
       <r>   -4.9976    1.0000 </r>
       <r>   -1.0488    0.0000 </r>
       <r>    0.5724    0.0000 </r>
       <r>    1.3712    0.0000 </r>
       <r>    1.7620    0.0000 </r>
      </set>
      <set comment="kpoint 16">
       <r>  -22.0599    1.0000 </r>
       <r>  -17.3034    1.0000 </r>
       <r>  -15.2636    1.0000 </r>
       <r>  -10.1867    1.0000 </r>
       <r>   -9.4356    1.0000 </r>
       <r>   -6.1184    1.0000 </r>
       <r>   -5.9224    1.0000 </r>
       <r>   -5.1895    1.0000 </r>
       <r>   -0.8124    0.0000 </r>
       <r>    0.6145    0.0000 </r>
       <r>    1.4138    0.0000 </r>
       <r>    1.8051    0.0000 </r>
      </set>
      <set comment="kpoint 17">
       <r>  -22.0082    1.0000 </r>
       <r>  -17.6932    1.0000 </r>
       <r>  -14.7993    1.0000 </r>
       <r>  -10.1253    1.0000 </r>
       <r>   -9.3838    1.0000 </r>
       <r>   -6.2577    1.0000 </r>
       <r>   -6.0873    1.0000 </r>
       <r>   -5.4672    1.0000 </r>
       <r>   -0.4610    0.0000 </r>
       <r>    0.6846    0.0000 </r>
       <r>    1.4846    0.0000 </r>
       <r>    1.8769    0.0000 </r>
      </set>
      <set comment="kpoint 18">
       <r>  -21.9358    1.0000 </r>
       <r>  -18.0808    1.0000 </r>
       <r>  -14.3080    1.0000 </r>
       <r>  -10.0395    1.0000 </r>
       <r>   -9.3117    1.0000 </r>
       <r>   -6.4702    1.0000 </r>
       <r>   -6.2837    1.0000 </r>
       <r>   -5.7957    1.0000 </r>
       <r>   -0.0307    0.0000 </r>
       <r>    0.7828    0.0000 </r>
       <r>    1.5838    0.0000 </r>
       <r>    1.9774    0.0000 </r>
      </set>
      <set comment="kpoint 19">
       <r>  -21.8429    1.0000 </r>
       <r>  -18.4574    1.0000 </r>
       <r>  -13.7993    1.0000 </r>
       <r>   -9.9294    1.0000 </r>
       <r>   -9.2196    1.0000 </r>
       <r>   -6.7640    1.0000 </r>
       <r>   -6.4894    1.0000 </r>
       <r>   -6.1499    1.0000 </r>
       <r>    0.4524    0.0000 </r>
       <r>    0.9090    0.0000 </r>
       <r>    1.7113    0.0000 </r>
       <r>    2.1066    0.0000 </r>
      </set>
      <set comment="kpoint 20">
       <r>  -21.7294    1.0000 </r>
       <r>  -18.8195    1.0000 </r>
       <r>  -13.2775    1.0000 </r>
       <r>   -9.7953    1.0000 </r>
       <r>   -9.1080    1.0000 </r>
       <r>   -7.1238    1.0000 </r>
       <r>   -6.7044    1.0000 </r>
       <r>   -6.5135    1.0000 </r>
       <r>    0.9702    0.0000 </r>
       <r>    1.0632    0.0000 </r>
       <r>    1.8670    0.0000 </r>
       <r>    2.2645    0.0000 </r>
      </set>
      <set comment="kpoint 21">
       <r>  -21.5955    1.0000 </r>
       <r>  -19.1654    1.0000 </r>
       <r>  -12.7456    1.0000 </r>
       <r>   -9.6373    1.0000 </r>
       <r>   -8.9775    1.0000 </r>
       <r>   -7.5341    1.0000 </r>
       <r>   -6.9294    1.0000 </r>
       <r>   -6.8763    1.0000 </r>
       <r>    1.2454    0.0000 </r>
       <r>    1.5103    0.0000 </r>
       <r>    2.0509    0.0000 </r>
       <r>    2.4511    0.0000 </r>
      </set>
      <set comment="kpoint 22">
       <r>  -21.4412    1.0000 </r>
       <r>  -19.4939    1.0000 </r>
       <r>  -12.2061    1.0000 </r>
       <r>   -9.4557    1.0000 </r>
       <r>   -8.8289    1.0000 </r>
       <r>   -7.9838    1.0000 </r>
       <r>   -7.2314    1.0000 </r>
       <r>   -7.1612    1.0000 </r>
       <r>    1.4556    0.0000 </r>
       <r>    2.0635    0.0000 </r>
       <r>    2.2628    0.0000 </r>
       <r>    2.6664    0.0000 </r>
      </set>
      <set comment="kpoint 23">
       <r>  -21.2667    1.0000 </r>
       <r>  -19.8045    1.0000 </r>
       <r>  -11.6615    1.0000 </r>
       <r>   -9.2510    1.0000 </r>
       <r>   -8.6631    1.0000 </r>
       <r>   -8.4645    1.0000 </r>
       <r>   -7.5743    1.0000 </r>
       <r>   -7.3955    1.0000 </r>
       <r>    1.6936    0.0000 </r>
       <r>    2.5027    0.0000 </r>
       <r>    2.6219    0.0000 </r>
       <r>    2.9104    0.0000 </r>
      </set>
      <set comment="kpoint 24">
       <r>  -21.0721    1.0000 </r>
       <r>  -20.0965    1.0000 </r>
       <r>  -11.1146    1.0000 </r>
       <r>   -9.0237    1.0000 </r>
       <r>   -8.9690    1.0000 </r>
       <r>   -8.4814    1.0000 </r>
       <r>   -7.9021    1.0000 </r>
       <r>   -7.6284    1.0000 </r>
       <r>    1.9594    0.0000 </r>
       <r>    2.7702    0.0000 </r>
       <r>    3.1830    0.0000 </r>
       <r>    3.2958    0.0000 </r>
      </set>
      <set comment="kpoint 25">
       <r>  -20.8576    1.0000 </r>
       <r>  -20.3695    1.0000 </r>
       <r>  -10.5682    1.0000 </r>
       <r>   -9.4911    1.0000 </r>
       <r>   -8.7742    1.0000 </r>
       <r>   -8.2851    1.0000 </r>
       <r>   -8.2123    1.0000 </r>
       <r>   -7.8563    1.0000 </r>
       <r>    2.2529    0.0000 </r>
       <r>    2.9219    0.0000 </r>
       <r>    3.0644    0.0000 </r>
       <r>    3.4851    0.0000 </r>
      </set>
      <set comment="kpoint 26">
       <r>  -20.6233    1.0000 </r>
       <r>  -20.6233    1.0000 </r>
       <r>  -10.0257    1.0000 </r>
       <r>  -10.0257    1.0000 </r>
       <r>   -8.5035    1.0000 </r>
       <r>   -8.5035    1.0000 </r>
       <r>   -8.0760    1.0000 </r>
       <r>   -8.0760    1.0000 </r>
       <r>    2.5738    0.0000 </r>
       <r>    2.5738    0.0000 </r>
       <r>    3.3814    0.0000 </r>
       <r>    3.3815    0.0000 </r>
      </set>
      <set comment="kpoint 27">
       <r>  -22.0619    1.0000 </r>
       <r>  -16.7193    1.0000 </r>
       <r>  -15.8421    1.0000 </r>
       <r>  -10.1890    1.0000 </r>
       <r>   -9.6488    1.0000 </r>
       <r>   -6.1690    1.0000 </r>
       <r>   -5.8735    1.0000 </r>
       <r>   -4.8803    1.0000 </r>
       <r>   -1.1514    0.0000 </r>
       <r>    0.6117    0.0000 </r>
       <r>    1.4111    0.0000 </r>
       <r>    1.8024    0.0000 </r>
      </set>
      <set comment="kpoint 28">
       <r>  -22.0515    1.0000 </r>
       <r>  -16.9084    1.0000 </r>
       <r>  -15.6381    1.0000 </r>
       <r>  -10.1768    1.0000 </r>
       <r>   -9.6383    1.0000 </r>
       <r>   -6.2023    1.0000 </r>
       <r>   -5.9015    1.0000 </r>
       <r>   -4.9504    1.0000 </r>
       <r>   -1.0667    0.0000 </r>
       <r>    0.6257    0.0000 </r>
       <r>    1.4253    0.0000 </r>
       <r>    1.8168    0.0000 </r>
      </set>
      <set comment="kpoint 29">
       <r>  -22.0205    1.0000 </r>
       <r>  -17.2685    1.0000 </r>
       <r>  -15.2337    1.0000 </r>
       <r>  -10.1399    1.0000 </r>
       <r>   -9.6068    1.0000 </r>
       <r>   -6.3005    1.0000 </r>
       <r>   -5.9851    1.0000 </r>
       <r>   -5.1435    1.0000 </r>
       <r>   -0.8303    0.0000 </r>
       <r>    0.6678    0.0000 </r>
       <r>    1.4678    0.0000 </r>
       <r>    1.8599    0.0000 </r>
      </set>
      <set comment="kpoint 30">
       <r>  -21.9688    1.0000 </r>
       <r>  -17.6576    1.0000 </r>
       <r>  -14.7710    1.0000 </r>
       <r>  -10.0786    1.0000 </r>
       <r>   -9.5546    1.0000 </r>
       <r>   -6.4596    1.0000 </r>
       <r>   -6.1213    1.0000 </r>
       <r>   -5.4224    1.0000 </r>
       <r>   -0.4797    0.0000 </r>
       <r>    0.7380    0.0000 </r>
       <r>    1.5387    0.0000 </r>
       <r>    1.9316    0.0000 </r>
      </set>
      <set comment="kpoint 31">
       <r>  -21.8965    1.0000 </r>
       <r>  -18.0446    1.0000 </r>
       <r>  -14.2816    1.0000 </r>
       <r>   -9.9929    1.0000 </r>
       <r>   -9.4818    1.0000 </r>
       <r>   -6.6761    1.0000 </r>
       <r>   -6.3032    1.0000 </r>
       <r>   -5.7517    1.0000 </r>
       <r>   -0.0513    0.0000 </r>
       <r>    0.8362    0.0000 </r>
       <r>    1.6378    0.0000 </r>
       <r>    2.0321    0.0000 </r>
      </set>
      <set comment="kpoint 32">
       <r>  -21.8036    1.0000 </r>
       <r>  -18.4208    1.0000 </r>
       <r>  -13.7752    1.0000 </r>
       <r>   -9.8830    1.0000 </r>
       <r>   -9.3887    1.0000 </r>
       <r>   -6.9483    1.0000 </r>
       <r>   -6.5195    1.0000 </r>
       <r>   -6.1063    1.0000 </r>
       <r>    0.4286    0.0000 </r>
       <r>    0.9624    0.0000 </r>
       <r>    1.7653    0.0000 </r>
       <r>    2.1613    0.0000 </r>
      </set>
      <set comment="kpoint 33">
       <r>  -21.6902    1.0000 </r>
       <r>  -18.7825    1.0000 </r>
       <r>  -13.2563    1.0000 </r>
       <r>   -9.7490    1.0000 </r>
       <r>   -9.2758    1.0000 </r>
       <r>   -7.2746    1.0000 </r>
       <r>   -6.7575    1.0000 </r>
       <r>   -6.4701    1.0000 </r>
       <r>    0.9422    0.0000 </r>
       <r>    1.1167    0.0000 </r>
       <r>    1.9209    0.0000 </r>
       <r>    2.3192    0.0000 </r>
      </set>
      <set comment="kpoint 34">
       <r>  -21.5563    1.0000 </r>
       <r>  -19.1280    1.0000 </r>
       <r>  -12.7280    1.0000 </r>
       <r>   -9.5911    1.0000 </r>
       <r>   -9.1435    1.0000 </r>
       <r>   -7.6513    1.0000 </r>
       <r>   -7.0064    1.0000 </r>
       <r>   -6.8328    1.0000 </r>
       <r>    1.2989    0.0000 </r>
       <r>    1.4772    0.0000 </r>
       <r>    2.1048    0.0000 </r>
       <r>    2.5059    0.0000 </r>
      </set>
      <set comment="kpoint 35">
       <r>  -21.4021    1.0000 </r>
       <r>  -19.4562    1.0000 </r>
       <r>  -12.1928    1.0000 </r>
       <r>   -9.4098    1.0000 </r>
       <r>   -8.9927    1.0000 </r>
       <r>   -8.0718    1.0000 </r>
       <r>   -7.2589    1.0000 </r>
       <r>   -7.1877    1.0000 </r>
       <r>    1.5091    0.0000 </r>
       <r>    2.0246    0.0000 </r>
       <r>    2.3167    0.0000 </r>
       <r>    2.7212    0.0000 </r>
      </set>
      <set comment="kpoint 36">
       <r>  -21.2277    1.0000 </r>
       <r>  -19.7665    1.0000 </r>
       <r>  -11.6535    1.0000 </r>
       <r>   -9.2054    1.0000 </r>
       <r>   -8.8240    1.0000 </r>
       <r>   -8.5284    1.0000 </r>
       <r>   -7.5304    1.0000 </r>
       <r>   -7.5100    1.0000 </r>
       <r>    1.7471    0.0000 </r>
       <r>    2.5566    0.0000 </r>
       <r>    2.5767    0.0000 </r>
       <r>    2.9652    0.0000 </r>
      </set>
      <set comment="kpoint 37">
       <r>  -21.0332    1.0000 </r>
       <r>  -20.0582    1.0000 </r>
       <r>  -11.1130    1.0000 </r>
       <r>   -9.0134    1.0000 </r>
       <r>   -8.9782    1.0000 </r>
       <r>   -8.6384    1.0000 </r>
       <r>   -7.8578    1.0000 </r>
       <r>   -7.7561    1.0000 </r>
       <r>    2.0130    0.0000 </r>
       <r>    2.8241    0.0000 </r>
       <r>    3.1256    0.0000 </r>
       <r>    3.2378    0.0000 </r>
      </set>
      <set comment="kpoint 38">
       <r>  -20.8188    1.0000 </r>
       <r>  -20.3311    1.0000 </r>
       <r>  -10.5747    1.0000 </r>
       <r>   -9.5201    1.0000 </r>
       <r>   -8.7291    1.0000 </r>
       <r>   -8.4373    1.0000 </r>
       <r>   -8.1678    1.0000 </r>
       <r>   -7.9942    1.0000 </r>
       <r>    2.3065    0.0000 </r>
       <r>    2.9759    0.0000 </r>
       <r>    3.1184    0.0000 </r>
       <r>    3.5401    0.0000 </r>
      </set>
      <set comment="kpoint 39">
       <r>  -20.5847    1.0000 </r>
       <r>  -20.5847    1.0000 </r>
       <r>  -10.0422    1.0000 </r>
       <r>  -10.0422    1.0000 </r>
       <r>   -8.4586    1.0000 </r>
       <r>   -8.4586    1.0000 </r>
       <r>   -8.2220    1.0000 </r>
       <r>   -8.2220    1.0000 </r>
       <r>    2.6276    0.0000 </r>
       <r>    2.6276    0.0000 </r>
       <r>    3.4354    0.0000 </r>
       <r>    3.4355    0.0000 </r>
      </set>
      <set comment="kpoint 40">
       <r>  -21.9963    1.0000 </r>
       <r>  -16.6627    1.0000 </r>
       <r>  -15.7900    1.0000 </r>
       <r>  -10.1112    1.0000 </r>
       <r>   -9.9201    1.0000 </r>
       <r>   -6.4199    1.0000 </r>
       <r>   -6.0279    1.0000 </r>
[...]
       <r>   -9.0457    1.0000 </r>
       <r>   -5.6511    1.0000 </r>
       <r>   -5.6511    1.0000 </r>
       <r>   -0.5445    0.0000 </r>
       <r>   -0.5445    0.0000 </r>
       <r>    4.8166    0.0000 </r>
       <r>    4.8166    0.0000 </r>
      </set>
      <set comment="kpoint 209">
       <r>  -18.8395    1.0000 </r>
       <r>  -17.1326    1.0000 </r>
       <r>  -13.8966    1.0000 </r>
       <r>  -12.3329    1.0000 </r>
       <r>  -12.3273    1.0000 </r>
       <r>  -10.8565    1.0000 </r>
       <r>   -6.4838    1.0000 </r>
       <r>   -4.6666    1.0000 </r>
       <r>   -0.9948    0.0000 </r>
       <r>    1.0809    0.0000 </r>
       <r>    5.0732    0.0000 </r>
       <r>    5.8621    0.0000 </r>
      </set>
      <set comment="kpoint 210">
       <r>  -18.8297    1.0000 </r>
       <r>  -17.1251    1.0000 </r>
       <r>  -13.9879    1.0000 </r>
       <r>  -12.4132    1.0000 </r>
       <r>  -12.2332    1.0000 </r>
       <r>  -10.7723    1.0000 </r>
       <r>   -6.4749    1.0000 </r>
       <r>   -4.6688    1.0000 </r>
       <r>   -1.0057    0.0000 </r>
       <r>    1.0549    0.0000 </r>
       <r>    5.0869    0.0000 </r>
       <r>    5.8783    0.0000 </r>
      </set>
      <set comment="kpoint 211">
       <r>  -18.8005    1.0000 </r>
       <r>  -17.1029    1.0000 </r>
       <r>  -14.2115    1.0000 </r>
       <r>  -12.6273    1.0000 </r>
       <r>  -11.9846    1.0000 </r>
       <r>  -10.5639    1.0000 </r>
       <r>   -6.4486    1.0000 </r>
       <r>   -4.6759    1.0000 </r>
       <r>   -1.0365    0.0000 </r>
       <r>    0.9791    0.0000 </r>
       <r>    5.1280    0.0000 </r>
       <r>    5.9265    0.0000 </r>
      </set>
      <set comment="kpoint 212">
       <r>  -18.7519    1.0000 </r>
       <r>  -17.0675    1.0000 </r>
       <r>  -14.4930    1.0000 </r>
       <r>  -12.9041    1.0000 </r>
       <r>  -11.6615    1.0000 </r>
       <r>  -10.2990    1.0000 </r>
       <r>   -6.4050    1.0000 </r>
       <r>   -4.6895    1.0000 </r>
       <r>   -1.0820    0.0000 </r>
       <r>    0.8589    0.0000 </r>
       <r>    5.1961    0.0000 </r>
       <r>    6.0056    0.0000 </r>
      </set>
      <set comment="kpoint 213">
       <r>  -18.6841    1.0000 </r>
       <r>  -17.0214    1.0000 </r>
       <r>  -14.7897    1.0000 </r>
       <r>  -13.2059    1.0000 </r>
       <r>  -11.3063    1.0000 </r>
       <r>  -10.0184    1.0000 </r>
       <r>   -6.3447    1.0000 </r>
       <r>   -4.7118    1.0000 </r>
       <r>   -1.1341    0.0000 </r>
       <r>    0.7022    0.0000 </r>
       <r>    5.2904    0.0000 </r>
       <r>    6.1144    0.0000 </r>
      </set>
      <set comment="kpoint 214">
       <r>  -18.5973    1.0000 </r>
       <r>  -16.9698    1.0000 </r>
       <r>  -15.0779    1.0000 </r>
       <r>  -13.5147    1.0000 </r>
       <r>  -10.9411    1.0000 </r>
       <r>   -9.7452    1.0000 </r>
       <r>   -6.2684    1.0000 </r>
       <r>   -4.7459    1.0000 </r>
       <r>   -1.1835    0.0000 </r>
       <r>    0.5179    0.0000 </r>
       <r>    5.4074    0.0000 </r>
       <r>    6.1829    0.0000 </r>
      </set>
      <set comment="kpoint 215">
       <r>  -18.4920    1.0000 </r>
       <r>  -16.9223    1.0000 </r>
       <r>  -15.3391    1.0000 </r>
       <r>  -13.8210    1.0000 </r>
       <r>  -10.5791    1.0000 </r>
       <r>   -9.4944    1.0000 </r>
       <r>   -6.1773    1.0000 </r>
       <r>   -4.7945    1.0000 </r>
       <r>   -1.2206    0.0000 </r>
       <r>    0.3151    0.0000 </r>
       <r>    5.5115    0.0000 </r>
       <r>    5.7836    0.0000 </r>
      </set>
      <set comment="kpoint 216">
       <r>  -18.3686    1.0000 </r>
       <r>  -16.8962    1.0000 </r>
       <r>  -15.5511    1.0000 </r>
       <r>  -14.1193    1.0000 </r>
       <r>  -10.2309    1.0000 </r>
       <r>   -9.2783    1.0000 </r>
       <r>   -6.0726    1.0000 </r>
       <r>   -4.8598    1.0000 </r>
       <r>   -1.2369    0.0000 </r>
       <r>    0.1025    0.0000 </r>
       <r>    5.3030    0.0000 </r>
       <r>    5.7883    0.0000 </r>
      </set>
      <set comment="kpoint 217">
       <r>  -18.2278    1.0000 </r>
       <r>  -16.9170    1.0000 </r>
       <r>  -15.6855    1.0000 </r>
       <r>  -14.4056    1.0000 </r>
       <r>   -9.9060    1.0000 </r>
       <r>   -9.1074    1.0000 </r>
       <r>   -5.9560    1.0000 </r>
       <r>   -4.9430    1.0000 </r>
       <r>   -1.2259    0.0000 </r>
       <r>   -0.1123    0.0000 </r>
       <r>    5.0102    0.0000 </r>
       <r>    5.8313    0.0000 </r>
      </set>
      <set comment="kpoint 218">
       <r>  -18.0708    1.0000 </r>
       <r>  -17.0042    1.0000 </r>
       <r>  -15.7212    1.0000 </r>
       <r>  -14.6768    1.0000 </r>
       <r>   -9.6138    1.0000 </r>
       <r>   -8.9909    1.0000 </r>
       <r>   -5.8297    1.0000 </r>
       <r>   -5.0433    1.0000 </r>
       <r>   -1.1836    0.0000 </r>
       <r>   -0.3224    0.0000 </r>
       <r>    4.7914    0.0000 </r>
       <r>    5.4313    0.0000 </r>
      </set>
      <set comment="kpoint 219">
       <r>  -17.8991    1.0000 </r>
       <r>  -17.1504    1.0000 </r>
       <r>  -15.6643    1.0000 </r>
       <r>  -14.9301    1.0000 </r>
       <r>   -9.3636    1.0000 </r>
       <r>   -8.9358    1.0000 </r>
       <r>   -5.6962    1.0000 </r>
       <r>   -5.1587    1.0000 </r>
       <r>   -1.1087    0.0000 </r>
       <r>   -0.5217    0.0000 </r>
       <r>    4.6626    0.0000 </r>
       <r>    5.1023    0.0000 </r>
      </set>
      <set comment="kpoint 220">
       <r>  -17.7152    1.0000 </r>
       <r>  -17.3307    1.0000 </r>
       <r>  -15.5392    1.0000 </r>
       <r>  -15.1618    1.0000 </r>
       <r>   -9.1642    1.0000 </r>
       <r>   -8.9463    1.0000 </r>
       <r>   -5.5586    1.0000 </r>
       <r>   -5.2858    1.0000 </r>
       <r>   -1.0021    0.0000 </r>
       <r>   -0.7046    0.0000 </r>
       <r>    4.6299    0.0000 </r>
       <r>    4.8539    0.0000 </r>
      </set>
      <set comment="kpoint 221">
       <r>  -17.5233    1.0000 </r>
       <r>  -17.5233    1.0000 </r>
       <r>  -15.3674    1.0000 </r>
       <r>  -15.3674    1.0000 </r>
       <r>   -9.0233    1.0000 </r>
       <r>   -9.0233    1.0000 </r>
       <r>   -5.4205    1.0000 </r>
       <r>   -5.4205    1.0000 </r>
       <r>   -0.8661    0.0000 </r>
       <r>   -0.8661    0.0000 </r>
       <r>    4.6945    0.0000 </r>
       <r>    4.6945    0.0000 </r>
      </set>
      <set comment="kpoint 222">
       <r>  -18.4354    1.0000 </r>
       <r>  -17.5782    1.0000 </r>
       <r>  -13.5332    1.0000 </r>
       <r>  -12.7478    1.0000 </r>
       <r>  -11.9980    1.0000 </r>
       <r>  -11.2552    1.0000 </r>
       <r>   -6.0424    1.0000 </r>
       <r>   -5.1290    1.0000 </r>
       <r>   -0.5079    0.0000 </r>
       <r>    0.5319    0.0000 </r>
       <r>    5.6480    0.0000 </r>
       <r>    6.4046    0.0000 </r>
      </set>
      <set comment="kpoint 223">
       <r>  -18.4259    1.0000 </r>
       <r>  -17.5696    1.0000 </r>
       <r>  -13.6251    1.0000 </r>
       <r>  -12.8364    1.0000 </r>
       <r>  -11.9005    1.0000 </r>
       <r>  -11.1658    1.0000 </r>
       <r>   -6.0349    1.0000 </r>
       <r>   -5.1264    1.0000 </r>
       <r>   -0.5250    0.0000 </r>
       <r>    0.5079    0.0000 </r>
       <r>    5.6616    0.0000 </r>
       <r>    6.4216    0.0000 </r>
      </set>
      <set comment="kpoint 224">
       <r>  -18.3973    1.0000 </r>
       <r>  -17.5438    1.0000 </r>
       <r>  -13.8507    1.0000 </r>
       <r>  -13.0559    1.0000 </r>
       <r>  -11.6584    1.0000 </r>
       <r>  -10.9443    1.0000 </r>
       <r>   -6.0125    1.0000 </r>
       <r>   -5.1188    1.0000 </r>
       <r>   -0.5743    0.0000 </r>
       <r>    0.4381    0.0000 </r>
       <r>    5.7025    0.0000 </r>
       <r>    6.4722    0.0000 </r>
      </set>
      <set comment="kpoint 225">
       <r>  -18.3498    1.0000 </r>
       <r>  -17.5014    1.0000 </r>
       <r>  -14.1370    1.0000 </r>
       <r>  -13.3379    1.0000 </r>
       <r>  -11.3458    1.0000 </r>
       <r>  -10.6612    1.0000 </r>
       <r>   -5.9756    1.0000 </r>
       <r>   -5.1073    1.0000 </r>
       <r>   -0.6506    0.0000 </r>
       <r>    0.3278    0.0000 </r>
       <r>    5.7700    0.0000 </r>
       <r>    6.5548    0.0000 </r>
      </set>
      <set comment="kpoint 226">
       <r>  -18.2836    1.0000 </r>
       <r>  -17.4435    1.0000 </r>
       <r>  -14.4431    1.0000 </r>
       <r>  -13.6436    1.0000 </r>
       <r>  -11.0051    1.0000 </r>
       <r>  -10.3580    1.0000 </r>
       <r>   -5.9250    1.0000 </r>
       <r>   -5.0939    1.0000 </r>
       <r>   -0.7458    0.0000 </r>
       <r>    0.1848    0.0000 </r>
       <r>    5.8627    0.0000 </r>
       <r>    6.6677    0.0000 </r>
      </set>
      <set comment="kpoint 227">
       <r>  -18.1992    1.0000 </r>
       <r>  -17.3718    1.0000 </r>
       <r>  -14.7492    1.0000 </r>
       <r>  -13.9548    1.0000 </r>
       <r>  -10.6583    1.0000 </r>
       <r>  -10.0573    1.0000 </r>
       <r>   -5.8620    1.0000 </r>
       <r>   -5.0811    1.0000 </r>
       <r>   -0.8501    0.0000 </r>
       <r>    0.0181    0.0000 </r>
       <r>    5.9705    0.0000 </r>
       <r>    6.4532    0.0000 </r>
      </set>
      <set comment="kpoint 228">
       <r>  -18.0973    1.0000 </r>
       <r>  -17.2895    1.0000 </r>
       <r>  -15.0430    1.0000 </r>
       <r>  -14.2617    1.0000 </r>
       <r>  -10.3192    1.0000 </r>
       <r>   -9.7738    1.0000 </r>
       <r>   -5.7880    1.0000 </r>
       <r>   -5.0720    1.0000 </r>
       <r>   -0.9534    0.0000 </r>
       <r>   -0.1627    0.0000 </r>
       <r>    5.8920    0.0000 </r>
       <r>    6.2031    0.0000 </r>
      </set>
      <set comment="kpoint 229">
       <r>  -17.9786    1.0000 </r>
       <r>  -17.2024    1.0000 </r>
       <r>  -15.3140    1.0000 </r>
       <r>  -14.5586    1.0000 </r>
       <r>   -9.9987    1.0000 </r>
       <r>   -9.5195    1.0000 </r>
       <r>   -5.7052    1.0000 </r>
       <r>   -5.0701    1.0000 </r>
       <r>   -1.0454    0.0000 </r>
       <r>   -0.3485    0.0000 </r>
       <r>    5.5041    0.0000 </r>
       <r>    5.9960    0.0000 </r>
      </set>
      <set comment="kpoint 230">
       <r>  -17.8447    1.0000 </r>
       <r>  -17.1209    1.0000 </r>
       <r>  -15.5489    1.0000 </r>
       <r>  -14.8410    1.0000 </r>
       <r>   -9.7069    1.0000 </r>
       <r>   -9.3048    1.0000 </r>
       <r>   -5.6160    1.0000 </r>
       <r>   -5.0790    1.0000 </r>
       <r>   -1.1168    0.0000 </r>
       <r>   -0.5308    0.0000 </r>
       <r>    5.1571    0.0000 </r>
       <r>    5.5688    0.0000 </r>
      </set>
      <set comment="kpoint 231">
       <r>  -17.6979    1.0000 </r>
       <r>  -17.0636    1.0000 </r>
       <r>  -15.7273    1.0000 </r>
       <r>  -15.1045    1.0000 </r>
       <r>   -9.4534    1.0000 </r>
       <r>   -9.1396    1.0000 </r>
       <r>   -5.5234    1.0000 </r>
       <r>   -5.1017    1.0000 </r>
       <r>   -1.1601    0.0000 </r>
       <r>   -0.7019    0.0000 </r>
       <r>    4.8860    0.0000 </r>
       <r>    5.2077    0.0000 </r>
      </set>
      <set comment="kpoint 232">
       <r>  -17.5420    1.0000 </r>
       <r>  -17.0568    1.0000 </r>
       <r>  -15.8219    1.0000 </r>
       <r>  -15.3441    1.0000 </r>
       <r>   -9.2474    1.0000 </r>
       <r>   -9.0317    1.0000 </r>
       <r>   -5.4310    1.0000 </r>
       <r>   -5.1399    1.0000 </r>
       <r>   -1.1698    0.0000 </r>
       <r>   -0.8545    0.0000 </r>
       <r>    4.7021    0.0000 </r>
       <r>    4.9234    0.0000 </r>
      </set>
      <set comment="kpoint 233">
       <r>  -17.3837    1.0000 </r>
       <r>  -17.1177    1.0000 </r>
       <r>  -15.8146    1.0000 </r>
       <r>  -15.5522    1.0000 </r>
       <r>   -9.0973    1.0000 </r>
       <r>   -8.9873    1.0000 </r>
       <r>   -5.3427    1.0000 </r>
       <r>   -5.1939    1.0000 </r>
       <r>   -1.1431    0.0000 </r>
       <r>   -0.9823    0.0000 </r>
       <r>    4.6124    0.0000 </r>
       <r>    4.7252    0.0000 </r>
      </set>
      <set comment="kpoint 234">
       <r>  -17.2353    1.0000 </r>
       <r>  -17.2353    1.0000 </r>
       <r>  -15.7160    1.0000 </r>
       <r>  -15.7160    1.0000 </r>
       <r>   -9.0093    1.0000 </r>
       <r>   -9.0093    1.0000 </r>
       <r>   -5.2625    1.0000 </r>
       <r>   -5.2625    1.0000 </r>
       <r>   -1.0798    0.0000 </r>
       <r>   -1.0798    0.0000 </r>
       <r>    4.6202    0.0000 </r>
       <r>    4.6202    0.0000 </r>
      </set>
      <set comment="kpoint 235">
       <r>  -18.0140    1.0000 </r>
       <r>  -18.0140    1.0000 </r>
       <r>  -13.1501    1.0000 </r>
       <r>  -13.1501    1.0000 </r>
       <r>  -11.6371    1.0000 </r>
       <r>  -11.6371    1.0000 </r>
       <r>   -5.5894    1.0000 </r>
       <r>   -5.5894    1.0000 </r>
       <r>    0.0015    0.0000 </r>
       <r>    0.0015    0.0000 </r>
       <r>    6.2520    0.0000 </r>
       <r>    6.2520    0.0000 </r>
      </set>
      <set comment="kpoint 236">
       <r>  -18.0048    1.0000 </r>
       <r>  -18.0048    1.0000 </r>
       <r>  -13.2408    1.0000 </r>
       <r>  -13.2408    1.0000 </r>
       <r>  -11.5431    1.0000 </r>
       <r>  -11.5431    1.0000 </r>
       <r>   -5.5838    1.0000 </r>
       <r>   -5.5838    1.0000 </r>
       <r>   -0.0196    0.0000 </r>
       <r>   -0.0196    0.0000 </r>
       <r>    6.2656    0.0000 </r>
       <r>    6.2656    0.0000 </r>
      </set>
      <set comment="kpoint 237">
       <r>  -17.9772    1.0000 </r>
       <r>  -17.9772    1.0000 </r>
       <r>  -13.4645    1.0000 </r>
       <r>  -13.4645    1.0000 </r>
       <r>  -11.3103    1.0000 </r>
       <r>  -11.3103    1.0000 </r>
       <r>   -5.5672    1.0000 </r>
       <r>   -5.5672    1.0000 </r>
       <r>   -0.0810    0.0000 </r>
       <r>   -0.0810    0.0000 </r>
       <r>    6.3061    0.0000 </r>
       <r>    6.3061    0.0000 </r>
      </set>
      <set comment="kpoint 238">
       <r>  -17.9315    1.0000 </r>
       <r>  -17.9315    1.0000 </r>
       <r>  -13.7499    1.0000 </r>
       <r>  -13.7499    1.0000 </r>
       <r>  -11.0112    1.0000 </r>
       <r>  -11.0112    1.0000 </r>
       <r>   -5.5403    1.0000 </r>
       <r>   -5.5403    1.0000 </r>
       <r>   -0.1775    0.0000 </r>
       <r>   -0.1775    0.0000 </r>
       <r>    6.3729    0.0000 </r>
       <r>    6.3729    0.0000 </r>
      </set>
      <set comment="kpoint 239">
       <r>  -17.8682    1.0000 </r>
       <r>  -17.8682    1.0000 </r>
       <r>  -14.0577    1.0000 </r>
       <r>  -14.0577    1.0000 </r>
       <r>  -10.6879    1.0000 </r>
       <r>  -10.6879    1.0000 </r>
       <r>   -5.5043    1.0000 </r>
       <r>   -5.5043    1.0000 </r>
       <r>   -0.3011    0.0000 </r>
       <r>   -0.3011    0.0000 </r>
       <r>    6.4625    0.0000 </r>
       <r>    6.4625    0.0000 </r>
      </set>
      <set comment="kpoint 240">
       <r>  -17.7880    1.0000 </r>
       <r>  -17.7880    1.0000 </r>
       <r>  -14.3688    1.0000 </r>
       <r>  -14.3688    1.0000 </r>
       <r>  -10.3627    1.0000 </r>
       <r>  -10.3627    1.0000 </r>
       <r>   -5.4611    1.0000 </r>
       <r>   -5.4611    1.0000 </r>
       <r>   -0.4425    0.0000 </r>
       <r>   -0.4425    0.0000 </r>
       <r>    6.5307    0.0000 </r>
       <r>    6.5312    0.0000 </r>
      </set>
      <set comment="kpoint 241">
       <r>  -17.6923    1.0000 </r>
       <r>  -17.6923    1.0000 </r>
       <r>  -14.6731    1.0000 </r>
       <r>  -14.6731    1.0000 </r>
       <r>  -10.0498    1.0000 </r>
       <r>  -10.0498    1.0000 </r>
       <r>   -5.4129    1.0000 </r>
       <r>   -5.4129    1.0000 </r>
       <r>   -0.5918    0.0000 </r>
       <r>   -0.5918    0.0000 </r>
       <r>    6.1789    0.0000 </r>
       <r>    6.1789    0.0000 </r>
      </set>
      <set comment="kpoint 242">
       <r>  -17.5830    1.0000 </r>
       <r>  -17.5830    1.0000 </r>
       <r>  -14.9637    1.0000 </r>
       <r>  -14.9637    1.0000 </r>
       <r>   -9.7606    1.0000 </r>
       <r>   -9.7606    1.0000 </r>
       <r>   -5.3627    1.0000 </r>
       <r>   -5.3627    1.0000 </r>
       <r>   -0.7391    0.0000 </r>
       <r>   -0.7391    0.0000 </r>
       <r>    5.7338    0.0000 </r>
       <r>    5.7338    0.0000 </r>
      </set>
      <set comment="kpoint 243">
       <r>  -17.4638    1.0000 </r>
       <r>  -17.4638    1.0000 </r>
       <r>  -15.2340    1.0000 </r>
       <r>  -15.2340    1.0000 </r>
       <r>   -9.5056    1.0000 </r>
       <r>   -9.5056    1.0000 </r>
       <r>   -5.3139    1.0000 </r>
       <r>   -5.3139    1.0000 </r>
       <r>   -0.8751    0.0000 </r>
       <r>   -0.8751    0.0000 </r>
       <r>    5.3436    0.0000 </r>
       <r>    5.3436    0.0000 </r>
      </set>
      <set comment="kpoint 244">
       <r>  -17.3408    1.0000 </r>
       <r>  -17.3408    1.0000 </r>
       <r>  -15.4760    1.0000 </r>
       <r>  -15.4760    1.0000 </r>
       <r>   -9.2945    1.0000 </r>
       <r>   -9.2945    1.0000 </r>
       <r>   -5.2703    1.0000 </r>
       <r>   -5.2703    1.0000 </r>
       <r>   -0.9913    0.0000 </r>
       <r>   -0.9913    0.0000 </r>
       <r>    5.0252    0.0000 </r>
       <r>    5.0252    0.0000 </r>
      </set>
      <set comment="kpoint 245">
       <r>  -17.2255    1.0000 </r>
       <r>  -17.2255    1.0000 </r>
       <r>  -15.6771    1.0000 </r>
       <r>  -15.6771    1.0000 </r>
       <r>   -9.1361    1.0000 </r>
       <r>   -9.1361    1.0000 </r>
       <r>   -5.2357    1.0000 </r>
       <r>   -5.2357    1.0000 </r>
       <r>   -1.0803    0.0000 </r>
       <r>   -1.0803    0.0000 </r>
       <r>    4.7894    0.0000 </r>
       <r>    4.7894    0.0000 </r>
      </set>
      <set comment="kpoint 246">
       <r>  -17.1375    1.0000 </r>
       <r>  -17.1375    1.0000 </r>
       <r>  -15.8168    1.0000 </r>
       <r>  -15.8168    1.0000 </r>
       <r>   -9.0379    1.0000 </r>
       <r>   -9.0379    1.0000 </r>
       <r>   -5.2134    1.0000 </r>
       <r>   -5.2134    1.0000 </r>
       <r>   -1.1363    0.0000 </r>
       <r>   -1.1363    0.0000 </r>
       <r>    4.6443    0.0000 </r>
       <r>    4.6443    0.0000 </r>
      </set>
      <set comment="kpoint 247">
       <r>  -17.1034    1.0000 </r>
       <r>  -17.1034    1.0000 </r>
       <r>  -15.8682    1.0000 </r>
       <r>  -15.8682    1.0000 </r>
       <r>   -9.0046    1.0000 </r>
       <r>   -9.0046    1.0000 </r>
       <r>   -5.2056    1.0000 </r>
       <r>   -5.2056    1.0000 </r>
       <r>   -1.1554    0.0000 </r>
       <r>   -1.1554    0.0000 </r>
       <r>    4.5954    0.0000 </r>
       <r>    4.5954    0.0000 </r>
      </set>
     </set>
    </set>
   </array>
  </eigenvalues>
  <separator name="orbital magnetization" >
   <v name="MAGDIPOLOUT">      0.00000000      0.00000000      0.00000000</v>
  </separator>
 </calculation>
 <structure name="finalpos" >
  <crystal>
   <varray name="basis" >
    <v>       4.25842870       0.00000000       0.00000000 </v>
    <v>       0.00000000       2.51714120       0.00000000 </v>
    <v>       0.00000000       0.00000000      19.66942779 </v>
   </varray>
   <i name="volume">    210.83790140 </i>
   <varray name="rec_basis" >
    <v>       0.23482840       0.00000000       0.00000000 </v>
    <v>       0.00000000       0.39727608       0.00000000 </v>
    <v>       0.00000000       0.00000000       0.05084032 </v>
   </varray>
  </crystal>
  <varray name="positions" >
   <v>       0.00052293       0.00000000      -0.00000000 </v>
   <v>       0.16614373       0.50000000       0.00000000 </v>
   <v>       0.50052293       0.50000000      -0.00000000 </v>
   <v>       0.66614373      -0.00000000       0.00000000 </v>
  </varray>
 </structure>
</modeling>
