 running on    8 total cores
 distrk:  each k-point on    8 cores,    1 groups
 distr:  one band on    2 cores,    4 groups
 using from now: INCAR     
 vasp.5.3.5 31Mar14 (build Mar 02 2015 18:14:16) complex                        
  
 POSCAR found type information on POSCAR  C 
 POSCAR found :  1 types and       4 ions
 LDA part: xc-table for Pade appr. of Perdew
 POSCAR, INCAR and KPOINTS ok, starting setup
 FFT: planning ...
 WAVECAR not read
 entering main loop
       N       E                     dE             d eps       ncg     rms          rms(c)
DAV:   1     0.186952935384E+03    0.18695E+03   -0.10492E+04  5928   0.274E+03
DAV:   2    -0.922627610042E+01   -0.19618E+03   -0.17451E+03 10352   0.258E+02
DAV:   3    -0.381459811118E+02   -0.28920E+02   -0.28351E+02  7380   0.119E+02    0.714E+00
RMM:   4    -0.376060969075E+02    0.53988E+00   -0.96001E+00  5928   0.265E+01    0.414E+00
RMM:   5    -0.368901420493E+02    0.71595E+00   -0.27081E+00  5934   0.112E+01    0.707E-01
RMM:   6    -0.368925123573E+02   -0.23703E-02   -0.88378E-02  6379   0.202E+00    0.504E-01
RMM:   7    -0.368834494170E+02    0.90629E-02   -0.31519E-02  5944   0.154E+00    0.326E-01
RMM:   8    -0.368785165510E+02    0.49329E-02   -0.65539E-03  5933   0.536E-01    0.133E-01
RMM:   9    -0.368782786406E+02    0.23791E-03   -0.19668E-02  5928   0.828E-01    0.153E-01
RMM:  10    -0.368781831554E+02    0.95485E-04   -0.23107E-03  5928   0.346E-01    0.276E-02
RMM:  11    -0.368805282825E+02   -0.23451E-02   -0.68733E-04  5932   0.175E-01    0.448E-02
RMM:  12    -0.368810043083E+02   -0.47603E-03   -0.21489E-04  5944   0.972E-02    0.577E-03
RMM:  13    -0.368812691695E+02   -0.26486E-03   -0.53848E-05  6018   0.403E-02    0.373E-03
RMM:  14    -0.368813512139E+02   -0.82044E-04   -0.10274E-05  5959   0.162E-02    0.118E-03
RMM:  15    -0.368813628431E+02   -0.11629E-04   -0.17436E-06  5992   0.748E-03    0.187E-03
RMM:  16    -0.368813755697E+02   -0.12727E-04   -0.13644E-06  5928   0.753E-03    0.103E-03
RMM:  17    -0.368813815527E+02   -0.59831E-05   -0.84676E-08  6082   0.181E-03    0.739E-04
RMM:  18    -0.368813826453E+02   -0.10925E-05   -0.58279E-08  5930   0.182E-03    0.861E-05
WARNING in EDDRMM: call to ZHEGV failed, returncode =   6  3  1
WARNING in EDDRMM: call to ZHEGV failed, returncode =   6  3  1
RMM:  19    -0.368813834237E+02   -0.77844E-06   -0.10393E-08  5866   0.467E-04    0.156E-05
RMM:  20    -0.368813834782E+02   -0.54463E-07   -0.83711E-10  4472   0.141E-04    0.223E-05
RMM:  21    -0.368813834929E+02   -0.14736E-07   -0.20939E-10  4346   0.858E-05    0.680E-06
RMM:  22    -0.368813834928E+02    0.13597E-09   -0.20523E-11  3900   0.477E-05    0.147E-06
RMM:  23    -0.368813834931E+02   -0.35925E-09   -0.17095E-11  3536   0.371E-05    0.172E-06
RMM:  24    -0.368813834933E+02   -0.16826E-09   -0.56116E-12  3130   0.283E-05    0.481E-07
RMM:  25    -0.368813834933E+02   -0.42405E-10   -0.48097E-12  2796   0.251E-05
   1 F= -.36881383E+02 E0= -.36881383E+02  d E =-.368814E+02
 BRION: g(F)=  0.534E-06 g(S)=  0.000E+00
 bond charge predicted
       N       E                     dE             d eps       ncg     rms          rms(c)
DAV:   1    -0.368813826668E+02    0.82652E-06   -0.71477E-05  6316   0.796E-02    0.163E-03
RMM:   2    -0.368813827154E+02   -0.48574E-07   -0.11957E-06  5946   0.959E-03    0.119E-03
RMM:   3    -0.368813826706E+02    0.44801E-07   -0.19315E-07  5975   0.356E-03    0.302E-04
RMM:   4    -0.368813826688E+02    0.17341E-08   -0.11980E-08  6048   0.863E-04    0.866E-05
RMM:   5    -0.368813826674E+02    0.14676E-08   -0.95994E-10  5205   0.223E-04    0.385E-05
RMM:   6    -0.368813826676E+02   -0.23351E-09   -0.11611E-10  3829   0.942E-05    0.479E-06
RMM:   7    -0.368813826679E+02   -0.35811E-09   -0.19539E-11  3766   0.555E-05    0.326E-06
RMM:   8    -0.368813826677E+02    0.27762E-09   -0.14856E-11  3341   0.399E-05    0.149E-06
RMM:   9    -0.368813826676E+02    0.80945E-10   -0.46408E-12  3102   0.302E-05
   2 F= -.36881383E+02 E0= -.36881382E+02  d E =0.825754E-06
 BRION: g(F)=  0.870E-05 g(S)=  0.000E+00 retain N=  1 mean eig= 0.20
 eig:   0.199
 bond charge predicted
       N       E                     dE             d eps       ncg     rms          rms(c)
DAV:   1    -0.368813835249E+02   -0.85723E-06   -0.45901E-05  6624   0.638E-02    0.131E-03
RMM:   2    -0.368813835579E+02   -0.32980E-07   -0.73497E-07  5945   0.765E-03    0.951E-04
RMM:   3    -0.368813835457E+02    0.12155E-07   -0.12082E-07  5987   0.281E-03    0.230E-04
RMM:   4    -0.368813835423E+02    0.34345E-08   -0.71546E-09  6059   0.669E-04    0.694E-05
RMM:   5    -0.368813835438E+02   -0.14750E-08   -0.54964E-10  4661   0.173E-04    0.306E-05
RMM:   6    -0.368813835436E+02    0.14904E-09   -0.72260E-11  3764   0.783E-05    0.397E-06
RMM:   7    -0.368813835435E+02    0.14165E-09   -0.15983E-11  3729   0.528E-05    0.293E-06
RMM:   8    -0.368813835432E+02    0.23886E-09   -0.14771E-11  3250   0.386E-05    0.135E-06
RMM:   9    -0.368813835437E+02   -0.41723E-09   -0.43661E-12  2909   0.296E-05    0.779E-07
RMM:  10    -0.368813835437E+02   -0.42405E-10   -0.64037E-12  2707   0.267E-05
   3 F= -.36881384E+02 E0= -.36881383E+02  d E =-.876110E-06
 BRION: g(F)=  0.163E-12 g(S)=  0.000E+00 retain N=  1 mean eig= 0.20
 eig:   0.199
 reached required accuracy - stopping structural energy minimisation
