gr                                      
           1
     4.258429    0.000000    0.000000
     0.000000    2.517141    0.000000
     0.000000    0.000000   19.669428
   C 
   4
Direct configuration=     1
   0.00051919  0.00000000  0.00000000
   0.16614747  0.50000000  0.00000000
   0.50051919  0.50000000  0.00000000
   0.66614747  0.00000000  0.00000000
Direct configuration=     2
   0.00053804  0.00000000  0.00000000
   0.16612863  0.50000000  0.00000000
   0.50053804  0.50000000  0.00000000
   0.66612863 -0.00000000  0.00000000
Direct configuration=     3
   0.00052293  0.00000000 -0.00000000
   0.16614373  0.50000000  0.00000000
   0.50052293  0.50000000 -0.00000000
   0.66614373 -0.00000000  0.00000000
