 running on    8 total cores
 distrk:  each k-point on    8 cores,    1 groups
 distr:  one band on    2 cores,    4 groups
 using from now: INCAR     
 vasp.5.3.5 31Mar14 (build Mar 02 2015 18:14:16) complex                        
  
 POSCAR found type information on POSCAR  C 
 POSCAR found :  1 types and       4 ions
 LDA part: xc-table for Pade appr. of Perdew
 POSCAR, INCAR and KPOINTS ok, starting setup
 FFT: planning ...
 WAVECAR not read
 entering main loop
       N       E                     dE             d eps       ncg     rms          rms(c)
DAV:   1     0.186812978749E+03    0.18681E+03   -0.10559E+04  5928   0.274E+03
DAV:   2    -0.995824905717E+01   -0.19677E+03   -0.17612E+03 10584   0.262E+02
DAV:   3    -0.381537473840E+02   -0.28195E+02   -0.27755E+02  7380   0.118E+02    0.710E+00
RMM:   4    -0.375710834656E+02    0.58266E+00   -0.89930E+00  5928   0.259E+01    0.410E+00
RMM:   5    -0.368677865237E+02    0.70330E+00   -0.26204E+00  5932   0.111E+01    0.692E-01
RMM:   6    -0.368695980014E+02   -0.18115E-02   -0.78895E-02  6372   0.200E+00    0.502E-01
RMM:   7    -0.368608146437E+02    0.87834E-02   -0.31467E-02  5946   0.154E+00    0.326E-01
RMM:   8    -0.368558147973E+02    0.49998E-02   -0.66895E-03  5931   0.542E-01    0.133E-01
RMM:   9    -0.368557132884E+02    0.10151E-03   -0.19462E-02  5928   0.825E-01    0.154E-01
RMM:  10    -0.368555681413E+02    0.14515E-03   -0.22674E-03  5928   0.343E-01    0.274E-02
RMM:  11    -0.368578686939E+02   -0.23006E-02   -0.68889E-04  5930   0.177E-01    0.439E-02
RMM:  12    -0.368583461309E+02   -0.47744E-03   -0.21022E-04  5944   0.964E-02    0.553E-03
RMM:  13    -0.368586086369E+02   -0.26251E-03   -0.53241E-05  6021   0.395E-02    0.363E-03
RMM:  14    -0.368586893467E+02   -0.80710E-04   -0.10313E-05  5976   0.161E-02    0.117E-03
RMM:  15    -0.368587012376E+02   -0.11891E-04   -0.17802E-06  5982   0.747E-03    0.189E-03
RMM:  16    -0.368587146201E+02   -0.13383E-04   -0.13955E-06  5928   0.764E-03    0.107E-03
RMM:  17    -0.368587205285E+02   -0.59084E-05   -0.91305E-08  6058   0.185E-03    0.737E-04
RMM:  18    -0.368587215975E+02   -0.10690E-05   -0.61001E-08  5929   0.186E-03    0.884E-05
RMM:  19    -0.368587223271E+02   -0.72960E-06   -0.96871E-09  5913   0.455E-04    0.151E-05
RMM:  20    -0.368587223792E+02   -0.52079E-07   -0.83628E-10  4479   0.140E-04    0.199E-05
RMM:  21    -0.368587223928E+02   -0.13637E-07   -0.19454E-10  4331   0.816E-05    0.772E-06
RMM:  22    -0.368587223925E+02    0.28501E-09   -0.17630E-11  3902   0.477E-05    0.919E-07
RMM:  23    -0.368587223931E+02   -0.62084E-09   -0.15023E-11  3597   0.384E-05    0.181E-06
RMM:  24    -0.368587223929E+02    0.23283E-09   -0.66774E-12  3164   0.295E-05    0.569E-07
RMM:  25    -0.368587223928E+02    0.12119E-09   -0.56451E-12  2834   0.255E-05    0.152E-07
RMM:  26    -0.368587223930E+02   -0.20839E-09   -0.36639E-12  2608   0.225E-05    0.517E-08
RMM:  27    -0.368587223930E+02    0.17053E-10   -0.30542E-12  2420   0.209E-05
   1 F= -.36858722E+02 E0= -.36858722E+02  d E =-.368587E+02
 BRION: g(F)=  0.205E-06 g(S)=  0.000E+00
 bond charge predicted
       N       E                     dE             d eps       ncg     rms          rms(c)
DAV:   1    -0.368587220788E+02    0.31423E-06   -0.27364E-05  6248   0.493E-02    0.997E-04
RMM:   2    -0.368587221023E+02   -0.23501E-07   -0.46327E-07  5949   0.594E-03    0.735E-04
RMM:   3    -0.368587220991E+02    0.32180E-08   -0.73563E-08  5976   0.220E-03    0.187E-04
RMM:   4    -0.368587220959E+02    0.31321E-08   -0.45410E-09  6038   0.533E-04    0.531E-05
RMM:   5    -0.368587220975E+02   -0.16030E-08   -0.35850E-10  4398   0.140E-04    0.235E-05
RMM:   6    -0.368587220971E+02    0.38108E-09   -0.42820E-11  3747   0.658E-05    0.377E-06
RMM:   7    -0.368587220970E+02    0.14825E-09   -0.17699E-11  3736   0.517E-05    0.286E-06
RMM:   8    -0.368587220970E+02   -0.47066E-10   -0.14002E-11  3230   0.369E-05
   2 F= -.36858722E+02 E0= -.36858722E+02  d E =0.295938E-06
 BRION: g(F)=  0.327E-05 g(S)=  0.000E+00 retain N=  1 mean eig= 0.20
 eig:   0.200
 bond charge predicted
       N       E                     dE             d eps       ncg     rms          rms(c)
DAV:   1    -0.368587224211E+02   -0.32415E-06   -0.17494E-05  6628   0.394E-02    0.803E-04
RMM:   2    -0.368587224308E+02   -0.96986E-08   -0.28047E-07  5951   0.472E-03    0.585E-04
RMM:   3    -0.368587224161E+02    0.14757E-07   -0.45457E-08  5983   0.173E-03    0.138E-04
RMM:   4    -0.368587224165E+02   -0.40416E-09   -0.26605E-09  6015   0.409E-04    0.427E-05
RMM:   5    -0.368587224158E+02    0.68360E-09   -0.18838E-10  4077   0.110E-04    0.182E-05
RMM:   6    -0.368587224158E+02    0.59345E-10   -0.30364E-11  3690   0.587E-05
   3 F= -.36858722E+02 E0= -.36858722E+02  d E =-.318707E-06
 BRION: g(F)=  0.791E-11 g(S)=  0.000E+00 retain N=  1 mean eig= 0.20
 eig:   0.201
 bond charge predicted
       N       E                     dE             d eps       ncg     rms          rms(c)
DAV:   1    -0.368587224152E+02    0.62744E-09    0.59453E-09  4724   0.657E-05    0.190E-06
RMM:   2    -0.368587224159E+02   -0.70690E-09    0.15916E-12  2544   0.233E-05    0.118E-06
RMM:   3    -0.368587224157E+02    0.15348E-09   -0.28021E-12  2404   0.243E-05    0.114E-07
RMM:   4    -0.368587224156E+02    0.15075E-09   -0.13733E-12  2219   0.230E-05    0.818E-08
RMM:   5    -0.368587224160E+02   -0.36550E-09   -0.10230E-12  2131   0.215E-05    0.375E-08
RMM:   6    -0.368587224156E+02    0.38210E-09   -0.11614E-12  1999   0.204E-05    0.314E-08
RMM:   7    -0.368587224155E+02    0.26489E-10   -0.20699E-12  1878   0.192E-05
   4 F= -.36858722E+02 E0= -.36858722E+02  d E =0.208502E-09
 BRION: g(F)=  0.168E-10 g(S)=  0.000E+00 retain N=  1 mean eig= 0.08
 eig:   0.082
 bond charge predicted
       N       E                     dE             d eps       ncg     rms          rms(c)
DAV:   1    -0.368587224154E+02    0.21885E-09    0.59761E-09  4460   0.360E-05    0.309E-07
RMM:   2    -0.368587224155E+02   -0.12392E-09    0.38463E-13  1403   0.112E-05    0.191E-07
RMM:   3    -0.368587224159E+02   -0.43531E-09   -0.19252E-13  1385   0.111E-05    0.196E-08
RMM:   4    -0.368587224157E+02    0.24659E-09   -0.13212E-13  1375   0.110E-05    0.112E-08
RMM:   5    -0.368587224158E+02   -0.12869E-09    0.22155E-13  1364   0.110E-05    0.504E-09
RMM:   6    -0.368587224157E+02    0.12540E-09    0.47904E-14  1345   0.110E-05    0.421E-09
RMM:   7    -0.368587224156E+02    0.58208E-10    0.12500E-14  1340   0.109E-05
   5 F= -.36858722E+02 E0= -.36858722E+02  d E =-.653699E-10
 BRION: g(F)=  0.146E-12 g(S)=  0.000E+00 retain N=  1 mean eig= 0.09
 eig:   0.090
 reached required accuracy - stopping structural energy minimisation
