    4    4  400    1
  0.5270948E+02  0.4255220E-09  0.2528861E-09  0.1959303E-08  0.5000000E-15
  1.000000000000000E-004
  CAR 
 gr                                      
     16    247     12
 
  0.0000000E+00  0.0000000E+00  0.0000000E+00  0.1157407E-02
    1      -22.081921
    2      -16.705363
    3      -15.864872
    4      -10.226355
    5       -9.473257
    6       -5.990640
    7       -5.742309
    8       -4.905369
    9       -1.142799
   10        0.544635
   11        1.342744
   12        1.736082
 
  0.4166667E-01  0.0000000E+00  0.0000000E+00  0.2314815E-02
    1      -22.071548
    2      -16.901551
    3      -15.653673
    4      -10.214046
    5       -9.462845
    6       -6.014373
    7       -5.782500
    8       -4.975519
    9       -1.057845
   10        0.558689
   11        1.356941
   12        1.750459
 
  0.8333333E-01  0.0000000E+00  0.0000000E+00  0.2314815E-02
    1      -22.040435
    2      -17.268054
    3      -15.242229
    4      -10.177135
    5       -9.431659
    6       -6.084202
    7       -5.901617
    8       -5.168797
    9       -0.820332
   10        0.600849
   11        1.399528
   12        1.793589
 
  0.1250000E+00  0.0000000E+00  0.0000000E+00  0.2314815E-02
    1      -21.988601
    2      -17.660934
    3      -14.774762
    4      -10.115681
    5       -9.379849
    6       -6.196260
    7       -6.095510
    8       -5.448049
    9       -0.467946
   10        0.671111
   11        1.470493
   12        1.865474
 
  0.1666667E+00  0.0000000E+00  0.0000000E+00  0.2314815E-02
    1      -21.916080
    2      -18.050573
    3      -14.281367
    4      -10.029780
    5       -9.307672
    6       -6.357894
    7       -6.344827
    8       -5.777988
    9       -0.036872
   10        0.769464
   11        1.569818
   12        1.966111
 
  0.2083333E+00  0.0000000E+00  0.0000000E+00  0.2314815E-02
    1      -21.822924
    2      -18.428703
    3      -13.771002
    4       -9.919572
    5       -9.215498
    6       -6.681114
    7       -6.523134
    8       -6.133419
    9        0.446437
   10        0.895894
   11        1.697472
   12        2.095498
 
  0.2500000E+00  0.0000000E+00  0.0000000E+00  0.2314815E-02
    1      -21.709195
    2      -18.792045
    3      -13.247860
    4       -9.785245
    5       -9.103824
    6       -7.056883
    7       -6.724121
    8       -6.498086
    9        0.964088
   10        1.050377
   11        1.853412
   12        2.253633
 
  0.2916667E+00  0.0000000E+00  0.0000000E+00  0.2314815E-02
    1      -21.574975
    2      -19.138940
    3      -12.714757
    4       -9.627042
    5       -8.973291
    6       -7.476894
    7       -6.940991
    8       -6.861674
    9        1.232880
   10        1.503718
   11        2.037575
   12        2.440510
 
  0.3333333E+00  0.0000000E+00  0.0000000E+00  0.2314815E-02
    1      -21.420358
    2      -19.468392
    3      -12.174126
    4       -9.445269
    5       -8.824704
    6       -7.933241
    7       -7.217503
    8       -7.167553
    9        1.443357
   10        2.056107
   11        2.249866
   12        2.656120
 
  0.3750000E+00  0.0000000E+00  0.0000000E+00  0.2314815E-02
    1      -21.245462
    2      -19.779727
    3      -11.628391
    4       -9.240307
    5       -8.659060
    6       -8.418664
    7       -7.561105
    8       -7.398377
    9        1.681744
   10        2.490125
   11        2.613406
   12        2.900443
 
  0.4166667E+00  0.0000000E+00  0.0000000E+00  0.2314815E-02
    1      -21.050419
    2      -20.072448
    3      -11.080151
    4       -9.012635
    5       -8.926662
    6       -8.477589
    7       -7.889384
    8       -7.628811
    9        1.947953
   10        2.758041
   11        3.165964
   12        3.173444
 
  0.4583333E+00  0.0000000E+00  0.0000000E+00  0.2314815E-02
    1      -20.835390
    2      -20.346164
    3      -10.532312
    4       -9.451500
    5       -8.762846
    6       -8.281792
    7       -8.200125
    8       -7.854939
    9        2.241846
   10        2.911517
   11        3.052800
   12        3.475031
 
  0.5000000E+00  0.0000000E+00  0.0000000E+00  0.1157407E-02
    1      -20.600565
    2      -20.600565
    3       -9.988167
    4       -9.988167
    5       -8.491691
    6       -8.491691
    7       -8.073500
    8       -8.073500
    9        2.563194
   10        2.563194
   11        3.370738
   12        3.370738
 
  0.0000000E+00  0.2777778E-01  0.0000000E+00  0.2314815E-02
    1      -22.068907
    2      -16.694129
    3      -15.854492
    4      -10.210911
    5       -9.531452
    6       -6.044246
    7       -5.774476
    8       -4.889615
    9       -1.148953
   10        0.562234
   11        1.360600
   12        1.754161
 
  0.4166667E-01  0.2777778E-01  0.0000000E+00  0.4629630E-02
    1      -22.058536
    2      -16.890218
    3      -15.643455
    4      -10.198606
    5       -9.521009
    6       -6.070963
    7       -5.810949
    8       -4.959943
    9       -1.063952
   10        0.576290
   11        1.374796
   12        1.768538
 
  0.8333333E-01  0.2777778E-01  0.0000000E+00  0.4629630E-02
    1      -22.027426
    2      -17.256519
    3      -15.232400
    4      -10.161709
    5       -9.489728
    6       -6.150908
    7       -5.917886
    8       -5.153618
    9       -0.826438
   10        0.618455
   11        1.417379
   12        1.811670
 
  0.1250000E+00  0.2777778E-01  0.0000000E+00  0.4629630E-02
    1      -21.975599
    2      -17.649194
    3      -14.765458
    4      -10.100277
    5       -9.437755
    6       -6.285591
    7       -6.086107
    8       -5.433261
    9       -0.474322
   10        0.688723
   11        1.488339
   12        1.883555
 
  0.1666667E+00  0.2777778E-01  0.0000000E+00  0.4629630E-02
    1      -21.903089
    2      -18.038646
    3      -14.272715
    4      -10.014408
    5       -9.365335
    6       -6.485080
    7       -6.293973
    8       -5.763474
    9       -0.043901
   10        0.787087
   11        1.587656
   12        1.984194
 
  0.2083333E+00  0.2777778E-01  0.0000000E+00  0.4629630E-02
    1      -21.809947
    2      -18.416613
    3      -13.763146
    4       -9.904241
    5       -9.272825
    6       -6.763767
    7       -6.513073
    8       -6.119052
    9        0.438364
   10        0.913529
   11        1.715300
   12        2.113584
 
  0.2500000E+00  0.2777778E-01  0.0000000E+00  0.4629630E-02
    1      -21.696235
    2      -18.779814
    3      -13.240969
    4       -9.769964
    5       -9.160702
    6       -7.113937
    7       -6.736070
    8       -6.483768
    9        0.954611
   10        1.068025
   11        1.871229
   12        2.271723
 
  0.2916667E+00  0.2777778E-01  0.0000000E+00  0.4629630E-02
    1      -21.562037
    2      -19.126587
    3      -12.709040
    4       -9.611820
    5       -9.029580
    6       -7.517936
    7       -6.965695
    8       -6.847337
    9        1.250542
   10        1.492526
   11        2.055379
   12        2.458604
 
  0.3333333E+00  0.2777778E-01  0.0000000E+00  0.4629630E-02
    1      -21.407446
    2      -19.455934
    3      -12.169840
    4       -9.430116
    5       -8.880230
    6       -7.963038
    7       -7.203103
    8       -7.200649
    9        1.461035
   10        2.042953
   11        2.267658
   12        2.674219
 
  0.3750000E+00  0.2777778E-01  0.0000000E+00  0.4629630E-02
    1      -21.232580
    2      -19.767178
    3      -11.625855
    4       -9.225232
    5       -8.713604
    6       -8.440028
    7       -7.546618
    8       -7.437461
    9        1.699441
   10        2.507910
   11        2.598177
   12        2.918551
 
  0.4166667E+00  0.2777778E-01  0.0000000E+00  0.4629630E-02
    1      -21.037574
    2      -20.059820
    3      -11.079767
    4       -8.997645
    5       -8.941488
    6       -8.530875
    7       -7.874798
    8       -7.672364
    9        1.965672
   10        2.775830
   11        3.149132
   12        3.191566
 
  0.4583333E+00  0.2777778E-01  0.0000000E+00  0.4629630E-02
    1      -20.822588
    2      -20.333469
    3      -10.534583
    4       -9.461170
    5       -8.747950
    6       -8.333467
    7       -8.185434
    8       -7.901909
    9        2.259600
   10        2.929471
   11        3.070624
   12        3.493207
 
  0.5000000E+00  0.2777778E-01  0.0000000E+00  0.2314815E-02
    1      -20.587812
    2      -20.587812
    3       -9.993732
    4       -9.993732
    5       -8.476896
    6       -8.476896
    7       -8.123114
    8       -8.123114
    9        2.581010
   10        2.581010
   11        3.388601
   12        3.388601
 
  0.0000000E+00  0.5555556E-01  0.0000000E+00  0.2314815E-02
    1      -22.029876
    2      -16.660432
    3      -15.823561
    4      -10.164609
    5       -9.701240
    6       -6.200892
    7       -5.869943
    8       -4.842372
    9       -1.168196
   10        0.615043
   11        1.414162
   12        1.808400
 
  0.4166667E-01  0.5555556E-01  0.0000000E+00  0.4629630E-02
    1      -22.019508
    2      -16.856240
    3      -15.612996
    4      -10.152318
    5       -9.690698
    6       -6.233893
    7       -5.898003
    8       -4.913251
    9       -1.083045
   10        0.629102
   11        1.428354
   12        1.822778
 
  0.8333333E-01  0.5555556E-01  0.0000000E+00  0.4629630E-02
    1      -21.988412
    2      -17.221947
    3      -15.203115
    4      -10.115462
    5       -9.659113
    6       -6.330892
    7       -5.981866
    8       -5.108150
    9       -0.845511
   10        0.671277
   11        1.470927
   12        1.865912
 
  0.1250000E+00  0.5555556E-01  0.0000000E+00  0.4629630E-02
    1      -21.936606
    2      -17.614005
    3      -14.737786
    4      -10.054099
    5       -9.606612
    6       -6.487319
    7       -6.119406
    8       -5.388992
    9       -0.494205
   10        0.741563
   11        1.541869
   12        1.937801
 
  0.1666667E+00  0.5555556E-01  0.0000000E+00  0.4629630E-02
    1      -21.864129
    2      -18.002898
    3      -14.247056
    4       -9.968326
    5       -9.533410
    6       -6.698932
    7       -6.304545
    8       -5.720038
    9       -0.065768
   10        0.839951
   11        1.641161
   12        2.038445
 
  0.2083333E+00  0.5555556E-01  0.0000000E+00  0.4629630E-02
    1      -21.771028
    2      -18.380372
    3      -13.739950
    4       -9.858284
    5       -9.439813
    6       -6.963681
    7       -6.526490
    8       -6.076061
    9        0.413320
   10        0.966423
   11        1.768774
   12        2.167842
 
  0.2500000E+00  0.5555556E-01  0.0000000E+00  0.4629630E-02
    1      -21.657369
    2      -18.743146
    3      -13.220779
    4       -9.724160
    5       -9.326233
    6       -7.280920
    7       -6.771721
    8       -6.440920
    9        0.925301
   10        1.120954
   11        1.924665
   12        2.325989
 
  0.2916667E+00  0.5555556E-01  0.0000000E+00  0.4629630E-02
    1      -21.523235
    2      -19.089550
    3      -12.692524
    4       -9.566197
    5       -9.193193
    6       -7.648519
    7       -7.027983
    8       -6.804424
    9        1.303509
   10        1.458000
   11        2.108775
   12        2.512881
 
  0.3333333E+00  0.5555556E-01  0.0000000E+00  0.4629630E-02
    1      -21.368723
    2      -19.418578
    3      -12.157829
    4       -9.384701
    5       -9.041344
    6       -8.061173
    7       -7.286799
    8       -7.159997
    9        1.514043
   10        2.002450
   11        2.321014
   12        2.728511
 
  0.3750000E+00  0.5555556E-01  0.0000000E+00  0.4629630E-02
    1      -21.193949
    2      -19.729548
    3      -11.619394
    4       -9.180054
    5       -8.871485
    6       -8.511445
    7       -7.542955
    8       -7.503242
    9        1.752496
   10        2.551286
   11        2.561238
   12        2.972864
 
  0.4166667E+00  0.5555556E-01  0.0000000E+00  0.4629630E-02
    1      -20.999052
    2      -20.021954
    3      -11.080178
    4       -8.991536
    5       -8.952729
    6       -8.684577
    7       -7.831114
    8       -7.792984
    9        2.018785
   10        2.829170
   11        3.096811
   12        3.245915
 
  0.4583333E+00  0.5555556E-01  0.0000000E+00  0.4629630E-02
    1      -20.784194
    2      -20.295400
    3      -10.543545
    4       -9.494269
    5       -8.703321
    6       -8.481775
    7       -8.141429
    8       -8.034222
    9        2.312796
   10        2.983117
   11        3.124072
   12        3.547848
 
  0.5000000E+00  0.5555556E-01  0.0000000E+00  0.2314815E-02
    1      -20.549568
    2      -20.549568
    3      -10.013389
    4      -10.013389
    5       -8.432572
    6       -8.432572
    7       -8.264451
    8       -8.264451
    9        2.634349
   10        2.634349
   11        3.442179
   12        3.442179
 
  0.0000000E+00  0.8333333E-01  0.0000000E+00  0.2314815E-02
    1      -21.964864
    2      -16.604284
    3      -15.772748
    4      -10.087547
    5       -9.969519
    6       -6.449286
    7       -6.025733
    8       -4.763698
    9       -1.202861
   10        0.703085
   11        1.503408
   12        1.898805
 
  0.4166667E-01  0.8333333E-01  0.0000000E+00  0.4629630E-02
    1      -21.954504
    2      -16.799694
    3      -15.562921
    4      -10.075279
    5       -9.958787
    6       -6.488555
    7       -6.044179
    8       -4.835555
    9       -1.117418
   10        0.717147
   11        1.517594
   12        1.913183
 
  0.8333333E-01  0.8333333E-01  0.0000000E+00  0.4629630E-02
    1      -21.923429
    2      -17.164443
    3      -15.155037
    4      -10.038494
    5       -9.926623
    6       -6.600137
    7       -6.103959
    8       -5.032609
    9       -0.879786
   10        0.759331
   11        1.560147
   12        1.956319
 
  0.1250000E+00  0.8333333E-01  0.0000000E+00  0.4629630E-02
    1      -21.871661
    2      -17.555473
    3      -14.692520
    4       -9.977249
    5       -9.873113
    6       -6.771242
    7       -6.212599
    8       -5.315537
    9       -0.529828
   10        0.829635
   11        1.631056
   12        2.028211
 
  0.1666667E+00  0.8333333E-01  0.0000000E+00  0.4629630E-02
    1      -21.799237
    2      -17.943422
    3      -14.205348
    4       -9.891641
    5       -9.798407
    6       -6.990375
    7       -6.373157
    8       -5.648015
    9       -0.104768
   10        0.928050
   11        1.730302
   12        2.128861
 
  0.2083333E+00  0.8333333E-01  0.0000000E+00  0.4629630E-02
    1      -21.706206
    2      -18.320065
    3      -13.702644
    4       -9.781812
    5       -9.702712
    6       -7.249904
    7       -6.582260
    8       -6.004785
    9        0.368893
   10        1.054556
   11        1.857855
   12        2.258266
 
  0.2500000E+00  0.8333333E-01  0.0000000E+00  0.4629630E-02
    1      -21.592636
    2      -18.682117
    3      -13.188898
    4       -9.647950
    5       -9.586297
    6       -7.546093
    7       -6.830939
    8       -6.369867
    9        0.873591
   10        1.209130
   11        2.013676
   12        2.416425
 
  0.2916667E+00  0.8333333E-01  0.0000000E+00  0.4629630E-02
    1      -21.458611
    2      -19.027896
    3      -12.667348
    4       -9.490297
    5       -9.449492
    6       -7.878373
    7       -7.106308
    8       -6.733241
    9        1.391732
   10        1.397395
   11        2.197705
   12        2.603331
 
  0.3333333E+00  0.8333333E-01  0.0000000E+00  0.4629630E-02
    1      -21.304228
    2      -19.356387
    3      -12.140980
    4       -9.309160
    5       -9.292684
    6       -8.247691
    7       -7.394101
    8       -7.088464
    9        1.602318
   10        1.931627
   11        2.409863
   12        2.818979
 
  0.3750000E+00  0.8333333E-01  0.0000000E+00  0.4629630E-02
    1      -21.129610
    2      -19.666894
    3      -11.612945
    4       -9.116314
    5       -9.104920
    6       -8.654057
    7       -7.681768
    8       -7.431233
    9        1.840826
   10        2.469382
   11        2.650023
   12        3.063358
 
  0.4166667E+00  0.8333333E-01  0.0000000E+00  0.4629630E-02
    1      -20.934895
    2      -19.958903
    3      -11.086797
    4       -9.094791
    5       -8.920871
    6       -8.878047
    7       -7.960616
    8       -7.758566
    9        2.107180
   10        2.917955
   11        3.004339
   12        3.336449
 
  0.4583333E+00  0.8333333E-01  0.0000000E+00  0.4629630E-02
    1      -20.720253
    2      -20.232006
    3      -10.566672
    4       -9.564698
    5       -8.706886
    6       -8.629132
    7       -8.225796
    8       -8.068322
    9        2.401278
   10        3.072031
   11        3.213046
   12        3.524433
 
  0.5000000E+00  0.8333333E-01  0.0000000E+00  0.2314815E-02
    1      -20.485880
    2      -20.485880
    3      -10.057424
    4      -10.057424
    5       -8.474948
    6       -8.474948
    7       -8.358912
    8       -8.358912
    9        2.722973
   10        2.722973
   11        3.531425
   12        3.531427
 
  0.0000000E+00  0.1111111E+00  0.0000000E+00  0.2314815E-02
    1      -21.873936
    2      -16.525705
    3      -15.703318
    4      -10.317928
    5       -9.979889
    6       -6.773922
    7       -6.237217
    8       -4.653692
    9       -1.256737
   10        0.826391
   11        1.628301
   12        2.025380
 
  0.4166667E-01  0.1111111E+00  0.0000000E+00  0.4629630E-02
    1      -21.863586
    2      -16.720718
    3      -15.494423
    4      -10.306874
    5       -9.967655
    6       -6.818506
    7       -6.246053
    8       -4.727059
    9       -1.170779
   10        0.840452
   11        1.642476
   12        2.039759
 
  0.8333333E-01  0.1111111E+00  0.0000000E+00  0.4629630E-02
    1      -21.832542
    2      -17.084200
    3      -15.089437
    4      -10.273718
    5       -9.930973
    6       -6.941862
    7       -6.281781
    8       -4.927398
    9       -0.932841
   10        0.882638
   11        1.684997
   12        2.082894
 
  0.1250000E+00  0.1111111E+00  0.0000000E+00  0.4629630E-02
    1      -21.780827
    2      -17.473786
    3      -14.631176
    4      -10.218477
    5       -9.869899
    6       -7.124367
    7       -6.360422
    8       -5.213443
    9       -0.584731
   10        0.952947
   11        1.755852
   12        2.154788
 
  0.1666667E+00  0.1111111E+00  0.0000000E+00  0.4629630E-02
    1      -21.708478
    2      -17.860391
    3      -14.149499
    4      -10.141173
    5       -9.784533
    6       -7.350022
    7       -6.491807
    8       -5.548010
    9       -0.164521
   10        1.051373
   11        1.855022
   12        2.255442
 
  0.2083333E+00  0.1111111E+00  0.0000000E+00  0.4629630E-02
    1      -21.615546
    2      -18.235844
    3      -13.653707
    4      -10.041816
    5       -9.675015
    6       -7.608311
    7       -6.677788
    8       -5.905835
    9        0.301307
   10        1.177903
   11        1.982476
   12        2.384854
 
  0.2500000E+00  0.1111111E+00  0.0000000E+00  0.4629630E-02
    1      -21.502102
    2      -18.596861
    3      -13.148630
    4       -9.920395
    5       -9.541536
    6       -7.892987
    7       -6.913865
    8       -6.271195
    9        0.795509
   10        1.332509
   11        2.138173
   12        2.543022
 
  0.2916667E+00  0.1111111E+00  0.0000000E+00  0.4629630E-02
    1      -21.368229
    2      -18.941748
    3      -12.637991
    4       -9.776837
    5       -9.384338
    6       -8.201268
    7       -7.190731
    8       -6.634333
    9        1.306527
   10        1.515152
   11        2.322059
   12        2.729943
 
  0.3333333E+00  0.1111111E+00  0.0000000E+00  0.4629630E-02
    1      -21.214031
    2      -19.269470
    3      -12.125444
    4       -9.610980
    5       -9.203727
    6       -8.533389
    7       -7.495577
    8       -6.989003
    9        1.725782
   10        1.826077
   11        2.534059
   12        2.945609
 
  0.3750000E+00  0.1111111E+00  0.0000000E+00  0.4629630E-02
    1      -21.039632
    2      -19.579316
    3      -11.615029
    4       -9.422516
    5       -9.000083
    6       -8.891877
    7       -7.813592
    8       -7.331044
    9        1.964336
   10        2.347748
   11        2.774069
   12        3.190012
 
  0.4166667E+00  0.1111111E+00  0.0000000E+00  0.4629630E-02
    1      -20.845177
    2      -19.870756
    3      -11.111441
    4       -9.279912
    5       -9.210967
    6       -8.773876
    7       -8.130157
    8       -7.657565
    9        2.230737
   10        2.866174
   11        3.041927
   12        3.463137
 
  0.4583333E+00  0.1111111E+00  0.0000000E+00  0.4629630E-02
    1      -20.630842
    2      -20.143372
    3      -10.620159
    4       -9.698984
    5       -8.975733
    6       -8.525690
    7       -8.433503
    8       -7.966483
    9        2.524891
   10        3.195895
   11        3.337255
   12        3.376081
 
  0.5000000E+00  0.1111111E+00  0.0000000E+00  0.2314815E-02
    1      -20.396827
    2      -20.396827
    3      -10.147306
    4      -10.147306
    5       -8.716388
    6       -8.716388
    7       -8.256252
    8       -8.256252
    9        2.846671
   10        2.846671
   11        3.656062
   12        3.656090
 
  0.0000000E+00  0.1388889E+00  0.0000000E+00  0.2314815E-02
    1      -21.757183
    2      -16.424728
    3      -15.617431
    4      -10.725964
    5       -9.841871
    6       -7.158157
    7       -6.498555
    8       -4.512493
    9       -1.334873
   10        0.984984
   11        1.788784
   12        2.188133
 
  0.4166667E-01  0.1388889E+00  0.0000000E+00  0.4629630E-02
    1      -21.746846
    2      -16.619541
    3      -15.409544
    4      -10.714372
    5       -9.829683
    6       -7.207248
    7       -6.497938
    8       -4.588085
    9       -1.248015
   10        0.999040
   11        1.802942
   12        2.202510
 
  0.8333333E-01  0.1388889E+00  0.0000000E+00  0.4629630E-02
    1      -21.715843
    2      -16.981531
    3      -15.008531
    4      -10.679559
    5       -9.793141
    6       -7.340566
    7       -6.509463
    8       -4.793174
    9       -1.009300
   10        1.041211
   11        1.845413
   12        2.245644
 
  0.1250000E+00  0.1388889E+00  0.0000000E+00  0.4629630E-02
    1      -21.664196
    2      -17.369250
    3      -14.556452
    4      -10.621400
    5       -9.732300
    6       -7.532936
    7       -6.556367
    8       -5.083596
    9       -0.663417
   10        1.111501
   11        1.916183
   12        2.317535
 
  0.1666667E+00  0.1388889E+00  0.0000000E+00  0.4629630E-02
    1      -21.591945
    2      -17.754077
    3      -14.082987
    4      -10.539665
    5       -9.647262
    6       -7.765044
    7       -6.654185
    8       -5.420996
    9       -0.249574
   10        1.209912
   11        2.015228
   12        2.418186
 
  0.2083333E+00  0.1388889E+00  0.0000000E+00  0.4629630E-02
    1      -21.499143
    2      -18.127948
    3      -13.597783
    4      -10.433974
    5       -9.538169
    6       -8.024580
    7       -6.809174
    8       -5.780174
    9        0.205881
   10        1.336435
   11        2.142517
   12        2.547600
 
  0.2500000E+00  0.1388889E+00  0.0000000E+00  0.4629630E-02
    1      -21.385861
    2      -18.487588
    3      -13.106315
    4      -10.303731
    5       -9.405211
    6       -8.303855
    7       -7.020649
    8       -6.145814
    9        0.686222
   10        1.491046
   11        2.298001
   12        2.705774
 
  0.2916667E+00  0.1388889E+00  0.0000000E+00  0.4629630E-02
    1      -21.252188
    2      -18.831288
    3      -12.613249
    4      -10.148042
    5       -9.248633
    6       -8.598380
    7       -7.282792
    8       -6.508536
    9        1.180451
   10        1.673706
   11        2.481622
   12        2.892705
 
  0.3333333E+00  0.1388889E+00  0.0000000E+00  0.4629630E-02
    1      -21.098230
    2      -19.157990
    3      -12.123513
    4       -9.965626
    5       -9.068741
    6       -8.906320
    7       -7.585964
    8       -6.862377
    9        1.680821
   10        1.884359
   11        2.693299
   12        3.108386
 
  0.3750000E+00  0.1388889E+00  0.0000000E+00  0.4629630E-02
    1      -20.924118
    2      -19.466960
    3      -11.642733
    4       -9.754780
    5       -9.228370
    6       -8.865916
    7       -7.917676
    8       -7.203363
    9        2.122935
   10        2.181475
   11        2.932930
   12        3.352808
 
  0.4166667E+00  0.1388889E+00  0.0000000E+00  0.4629630E-02
    1      -20.730004
    2      -19.757649
    3      -11.177266
    4       -9.567626
    5       -9.513599
    6       -8.640624
    7       -8.263439
    8       -7.528727
    9        2.389353
   10        2.677689
   11        3.200379
   12        3.625959
 
  0.4583333E+00  0.1388889E+00  0.0000000E+00  0.4629630E-02
    1      -20.516070
    2      -20.029623
    3      -10.733594
    4       -9.928887
    5       -9.240758
    6       -8.607954
    7       -8.393443
    8       -7.836469
    9        2.683515
   10        3.165445
   11        3.354554
   12        3.495456
 
  0.5000000E+00  0.1388889E+00  0.0000000E+00  0.2314815E-02
    1      -20.282528
    2      -20.282528
    3      -10.316840
    4      -10.316840
    5       -8.937157
    6       -8.937157
    7       -8.125091
    8       -8.125091
    9        3.005302
   10        3.005302
   11        3.640995
   12        3.641000
 
  0.0000000E+00  0.1666667E+00  0.0000000E+00  0.2314815E-02
    1      -21.614727
    2      -16.301392
    3      -15.518715
    4      -11.172836
    5       -9.673808
    6       -7.586403
    7       -6.803154
    8       -4.340286
    9       -1.443183
   10        1.178867
   11        1.984779
   12        2.387068
 
  0.4166667E-01  0.1666667E+00  0.0000000E+00  0.4629630E-02
    1      -21.604407
    2      -16.496543
    3      -15.311739
    4      -11.160331
    5       -9.661681
    6       -7.639492
    7       -6.793235
    8       -4.419145
    9       -1.354733
   10        1.192912
   11        1.998911
   12        2.401443
 
  0.8333333E-01  0.1666667E+00  0.0000000E+00  0.4629630E-02
    1      -21.573454
    2      -16.856941
    3      -14.916166
    4      -11.122684
    5       -9.625321
    6       -7.781731
    7       -6.780446
    8       -4.631006
    9       -1.114257
   10        1.235051
   11        2.041300
   12        2.444570
 
  0.1250000E+00  0.1666667E+00  0.0000000E+00  0.4629630E-02
    1      -21.521893
    2      -17.242338
    3      -14.473172
    4      -11.059484
    5       -9.564787
    6       -7.983225
    7       -6.794244
    8       -4.927401
    9       -0.770703
   10        1.305293
   11        2.111930
   12        2.516452
 
  0.1666667E+00  0.1666667E+00  0.0000000E+00  0.4629630E-02
    1      -21.449763
    2      -17.624896
    3      -14.012227
    4      -10.969980
    5       -9.480179
    6       -8.221975
    7       -6.855108
    8       -5.268472
    9       -0.364690
   10        1.403650
   11        2.210769
   12        2.617094
 
  0.2083333E+00  0.1666667E+00  0.0000000E+00  0.4629630E-02
    1      -21.357121
    2      -17.996734
    3      -13.543686
    4      -10.852967
    5       -9.371643
    6       -8.484420
    7       -6.973204
    8       -5.629262
    9        0.077818
   10        1.530124
   11        2.337770
   12        2.746499
 
  0.2500000E+00  0.1666667E+00  0.0000000E+00  0.4629630E-02
    1      -21.244041
    2      -18.354605
    3      -13.074294
    4      -10.706658
    5       -9.239371
    6       -8.762076
    7       -7.151249
    8       -5.995079
    9        0.540935
   10        1.684697
   11        2.492865
   12        2.904670
 
  0.2916667E+00  0.1666667E+00  0.0000000E+00  0.4629630E-02
    1      -21.110616
    2      -18.696783
    3      -12.610469
    4      -10.528558
    5       -9.083611
    6       -9.049560
    7       -7.386489
    8       -6.357084
    9        1.014497
   10        1.867333
   11        2.675955
   12        3.091603
 
  0.3333333E+00  0.1666667E+00  0.0000000E+00  0.4629630E-02
    1      -20.956959
    2      -19.022181
    3      -12.159170
    4      -10.315550
    5       -9.343724
    6       -8.904671
    7       -7.672088
    8       -6.709690
    9        1.491521
   10        2.077972
   11        2.886885
   12        3.307293
 
  0.3750000E+00  0.1666667E+00  0.0000000E+00  0.4629630E-02
    1      -20.783207
    2      -19.330037
    3      -11.727645
    4      -10.064558
    5       -9.643383
    6       -8.702931
    7       -7.998240
    8       -7.049176
    9        1.966855
   10        2.316536
   11        3.125362
   12        3.551730
 
  0.4166667E+00  0.1666667E+00  0.0000000E+00  0.4629630E-02
    1      -20.589521
    2      -19.619772
    3      -11.321991
    4       -9.949350
    5       -9.774237
    6       -8.478857
    7       -8.352986
    8       -7.372934
    9        2.436426
   10        2.582934
   11        3.390466
   12        3.824901
 
  0.4583333E+00  0.1666667E+00  0.0000000E+00  0.4629630E-02
    1      -20.376092
    2      -19.890933
    3      -10.944895
    4      -10.264612
    5       -9.447402
    6       -8.722699
    7       -8.233022
    8       -7.679064
    9        2.877056
   10        2.896701
   11        3.547937
   12        3.663662
 
  0.5000000E+00  0.1666667E+00  0.0000000E+00  0.2314815E-02
    1      -20.143143
    2      -20.143143
    3      -10.594309
    4      -10.594309
    5       -9.092525
    6       -9.092525
    7       -7.966131
    8       -7.966131
    9        3.198776
   10        3.198776
   11        3.343462
   12        3.343462
 