gr                                      
           1
     4.255220    0.000000    0.000000
     0.000000    2.528861    0.000000
     0.000000    0.000000   19.593033
   C 
   4
Direct configuration=     1
   0.00063729  0.00000000  0.00000000
   0.16602938  0.50000000  0.00000000
   0.50063729  0.50000000  0.00000000
   0.66602938  0.00000000  0.00000000
Direct configuration=     2
   0.00062561  0.00000000 -0.00000000
   0.16604106  0.50000000  0.00000000
   0.50062561  0.50000000 -0.00000000
   0.66604106 -0.00000000  0.00000000
Direct configuration=     3
   0.00063495  0.00000000 -0.00000000
   0.16603172  0.50000000  0.00000000
   0.50063495  0.50000000 -0.00000000
   0.66603172 -0.00000000  0.00000000
Direct configuration=     4
   0.00063497  0.00000000 -0.00000000
   0.16603170  0.50000000  0.00000000
   0.50063497  0.50000000 -0.00000000
   0.66603170  0.00000000  0.00000000
Direct configuration=     5
   0.00063496  0.00000000 -0.00000000
   0.16603171  0.50000000  0.00000000
   0.50063496  0.50000000 -0.00000000
   0.66603171 -0.00000000  0.00000000
