    4    4  400    1
  0.5270948E+02  0.4251901E-09  0.2541199E-09  0.1951313E-08  0.5000000E-15
  1.000000000000000E-004
  CAR 
 gr                                      
     16    247     12
 
  0.0000000E+00  0.0000000E+00  0.0000000E+00  0.1157407E-02
    1      -22.047863
    2      -16.643211
    3      -15.845137
    4      -10.200090
    5       -9.528794
    6       -6.023758
    7       -5.739214
    8       -4.864691
    9       -1.160216
   10        0.548880
   11        1.346348
   12        1.741876
 
  0.4166667E-01  0.0000000E+00  0.0000000E+00  0.2314815E-02
    1      -22.037468
    2      -16.846794
    3      -15.626603
    4      -10.187769
    5       -9.518338
    6       -6.047734
    7       -5.778882
    8       -4.935652
    9       -1.074703
   10        0.562960
   11        1.360565
   12        1.756275
 
  0.8333333E-01  0.0000000E+00  0.0000000E+00  0.2314815E-02
    1      -22.006287
    2      -17.219185
    3      -15.209449
    4      -10.150825
    5       -9.487018
    6       -6.118266
    7       -5.896491
    8       -5.130841
    9       -0.836034
   10        0.605199
   11        1.403212
   12        1.799472
 
  0.1250000E+00  0.0000000E+00  0.0000000E+00  0.2314815E-02
    1      -21.954341
    2      -17.615090
    3      -14.739260
    4      -10.089316
    5       -9.434985
    6       -6.231416
    7       -6.088046
    8       -5.412223
    9       -0.482781
   10        0.675591
   11        1.474278
   12        1.871468
 
  0.1666667E+00  0.0000000E+00  0.0000000E+00  0.2314815E-02
    1      -21.881664
    2      -18.006609
    3      -14.244419
    4      -10.003336
    5       -9.362494
    6       -6.381364
    7       -6.347488
    8       -5.744022
    9       -0.051617
   10        0.774124
   11        1.573745
   12        1.972260
 
  0.2083333E+00  0.0000000E+00  0.0000000E+00  0.2314815E-02
    1      -21.788307
    2      -18.386099
    3      -13.733273
    4       -9.893028
    5       -9.269914
    6       -6.667398
    7       -6.561238
    8       -6.100936
    9        0.430894
   10        0.900783
   11        1.701582
   12        2.101846
 
  0.2500000E+00  0.0000000E+00  0.0000000E+00  0.2314815E-02
    1      -21.674333
    2      -18.750524
    3      -13.209783
    4       -9.758577
    5       -9.157739
    6       -7.039718
    7       -6.763883
    8       -6.466753
    9        0.946913
   10        1.055541
   11        1.857748
   12        2.260223
 
  0.2916667E+00  0.0000000E+00  0.0000000E+00  0.2314815E-02
    1      -21.539823
    2      -19.098336
    3      -12.676674
    4       -9.600227
    5       -9.026607
    6       -7.456326
    7       -6.982431
    8       -6.831235
    9        1.238364
   10        1.484177
   11        2.042182
   12        2.447384
 
  0.3333333E+00  0.0000000E+00  0.0000000E+00  0.2314815E-02
    1      -21.384874
    2      -19.428595
    3      -12.136341
    4       -9.418282
    5       -8.877319
    6       -7.909451
    7       -7.210635
    8       -7.187769
    9        1.449204
   10        2.033599
   11        2.254794
   12        2.663319
 
  0.3750000E+00  0.0000000E+00  0.0000000E+00  0.2314815E-02
    1      -21.209601
    2      -19.740654
    3      -11.591200
    4       -9.213124
    5       -8.710872
    6       -8.391929
    7       -7.531941
    8       -7.443027
    9        1.687996
   10        2.495436
   11        2.587567
   12        2.908005
 
  0.4166667E+00  0.0000000E+00  0.0000000E+00  0.2314815E-02
    1      -21.014138
    2      -20.034035
    3      -11.043860
    4       -8.985226
    5       -8.897310
    6       -8.528489
    7       -7.860690
    8       -7.674934
    9        1.954646
   10        2.763823
   11        3.137336
   12        3.181395
 
  0.4583333E+00  0.0000000E+00  0.0000000E+00  0.2314815E-02
    1      -20.798645
    2      -20.308355
    3      -10.497239
    4       -9.419885
    5       -8.735180
    6       -8.331668
    7       -8.171827
    8       -7.902427
    9        2.249004
   10        2.919429
   11        3.059212
   12        3.483570
 
  0.5000000E+00  0.0000000E+00  0.0000000E+00  0.1157407E-02
    1      -20.563312
    2      -20.563312
    3       -9.954648
    4       -9.954648
    5       -8.463732
    6       -8.463732
    7       -8.122239
    8       -8.122239
    9        2.570803
   10        2.570803
   11        3.378177
   12        3.378177
 
  0.0000000E+00  0.2777778E-01  0.0000000E+00  0.2314815E-02
    1      -22.034975
    2      -16.632070
    3      -15.835009
    4      -10.184815
    5       -9.586338
    6       -6.076819
    7       -5.771700
    8       -4.849105
    9       -1.166784
   10        0.566299
   11        1.364027
   12        1.759777
 
  0.4166667E-01  0.2777778E-01  0.0000000E+00  0.4629630E-02
    1      -22.024581
    2      -16.835576
    3      -15.616617
    4      -10.172499
    5       -9.575847
    6       -6.103579
    7       -5.807840
    8       -4.920252
    9       -1.081219
   10        0.580381
   11        1.378243
   12        1.774176
 
  0.8333333E-01  0.2777778E-01  0.0000000E+00  0.4629630E-02
    1      -21.993404
    2      -17.207778
    3      -15.199847
    4      -10.135568
    5       -9.544424
    6       -6.183250
    7       -5.914214
    8       -5.115852
    9       -0.842542
   10        0.622625
   11        1.420887
   12        1.817375
 
  0.1250000E+00  0.2777778E-01  0.0000000E+00  0.4629630E-02
    1      -21.941465
    2      -17.603480
    3      -14.730193
    4      -10.074081
    5       -9.492210
    6       -6.315507
    7       -6.083568
    8       -5.397635
    9       -0.489560
   10        0.693025
   11        1.491947
   12        1.889372
 
  0.1666667E+00  0.2777778E-01  0.0000000E+00  0.4629630E-02
    1      -21.868798
    2      -17.994814
    3      -14.236025
    4       -9.988134
    5       -9.419450
    6       -6.505813
    7       -6.299002
    8       -5.729713
    9       -0.059062
   10        0.791569
   11        1.591405
   12        1.990166
 
  0.2083333E+00  0.2777778E-01  0.0000000E+00  0.4629630E-02
    1      -21.775455
    2      -18.374140
    3      -13.725703
    4       -9.877867
    5       -9.326499
    6       -6.768996
    7       -6.531815
    8       -6.086774
    9        0.422383
   10        0.918241
   11        1.719232
   12        2.119755
 
  0.2500000E+00  0.2777778E-01  0.0000000E+00  0.4629630E-02
    1      -21.661498
    2      -18.738423
    3      -13.203218
    4       -9.743468
    5       -9.213828
    6       -7.107148
    7       -6.764999
    8       -6.452637
    9        0.936971
   10        1.073013
   11        1.875385
   12        2.278136
 
  0.2916667E+00  0.2777778E-01  0.0000000E+00  0.4629630E-02
    1      -21.527010
    2      -19.086112
    3      -12.671334
    4       -9.585178
    5       -9.082045
    6       -7.503514
    7       -7.000498
    8       -6.817096
    9        1.255851
   10        1.472488
   11        2.059805
   12        2.465302
 
  0.3333333E+00  0.2777778E-01  0.0000000E+00  0.4629630E-02
    1      -21.372087
    2      -19.416264
    3      -12.132503
    4       -9.403303
    5       -8.931914
    6       -7.943217
    7       -7.239248
    8       -7.173564
    9        1.466708
   10        2.019908
   11        2.272404
   12        2.681242
 
  0.3750000E+00  0.2777778E-01  0.0000000E+00  0.4629630E-02
    1      -21.196845
    2      -19.728232
    3      -11.589208
    4       -9.198224
    5       -8.764379
    6       -8.416016
    7       -7.517644
    8       -7.478861
    9        1.705519
   10        2.513037
   11        2.571741
   12        2.925938
 
  0.4166667E+00  0.2777778E-01  0.0000000E+00  0.4629630E-02
    1      -21.001418
    2      -20.021534
    3      -11.044148
    4       -8.970413
    5       -8.914086
    6       -8.580598
    7       -7.846291
    8       -7.716007
    9        1.972193
   10        2.781426
   11        3.119729
   12        3.199346
 
  0.4583333E+00  0.2777778E-01  0.0000000E+00  0.4629630E-02
    1      -20.785968
    2      -20.295786
    3      -10.500357
    4       -9.430996
    5       -8.720464
    6       -8.381982
    7       -8.157320
    8       -7.947427
    9        2.266590
   10        2.937268
   11        3.076850
   12        3.501401
 
  0.5000000E+00  0.2777778E-01  0.0000000E+00  0.2314815E-02
    1      -20.550684
    2      -20.550684
    3       -9.961305
    4       -9.961305
    5       -8.449118
    6       -8.449118
    7       -8.170239
    8       -8.170239
    9        2.588463
   10        2.588463
   11        3.395868
   12        3.395868
 
  0.0000000E+00  0.5555556E-01  0.0000000E+00  0.2314815E-02
    1      -21.996320
    2      -16.598650
    3      -15.804848
    4      -10.139020
    5       -9.754192
    6       -6.231882
    7       -5.868069
    8       -4.802368
    9       -1.187258
   10        0.618566
   11        1.417058
   12        1.813482
 
  0.4166667E-01  0.5555556E-01  0.0000000E+00  0.4629630E-02
    1      -21.985929
    2      -16.801948
    3      -15.586862
    4      -10.126718
    5       -9.743592
    6       -6.264776
    7       -5.895915
    8       -4.874089
    9       -1.101527
   10        0.632652
   11        1.431270
   12        1.827883
 
  0.8333333E-01  0.5555556E-01  0.0000000E+00  0.4629630E-02
    1      -21.954765
    2      -17.173593
    3      -15.171255
    4      -10.089829
    5       -9.711833
    6       -6.361228
    7       -5.979402
    8       -5.070957
    9       -0.862806
   10        0.674909
   11        1.473903
   12        1.871084
 
  0.1250000E+00  0.5555556E-01  0.0000000E+00  0.4629630E-02
    1      -21.902848
    2      -17.568687
    3      -14.703248
    4      -10.028412
    5       -9.659038
    6       -6.516024
    7       -6.117156
    8       -5.353971
    9       -0.510638
   10        0.745329
   11        1.544944
   12        1.943085
 
  0.1666667E+00  0.5555556E-01  0.0000000E+00  0.4629630E-02
    1      -21.830214
    2      -17.959461
    3      -14.211156
    4       -9.942563
    5       -9.585416
    6       -6.724019
    7       -6.304159
    8       -5.686894
    9       -0.082159
   10        0.843902
   11        1.644376
   12        2.043885
 
  0.2083333E+00  0.5555556E-01  0.0000000E+00  0.4629630E-02
    1      -21.736912
    2      -18.338292
    3      -13.703393
    4       -9.832422
    5       -9.491266
    6       -6.982446
    7       -6.530495
    8       -6.044398
    9        0.396048
   10        0.970606
   11        1.772169
   12        2.173481
 
  0.2500000E+00  0.5555556E-01  0.0000000E+00  0.4629630E-02
    1      -21.623008
    2      -18.702144
    3      -13.184042
    4       -9.698178
    5       -9.376989
    6       -7.290982
    7       -6.782476
    8       -6.410395
    9        0.906291
   10        1.125415
   11        1.928282
   12        2.331871
 
  0.2916667E+00  0.5555556E-01  0.0000000E+00  0.4629630E-02
    1      -21.488585
    2      -19.049461
    3      -12.656006
    4       -9.540072
    5       -9.243090
    6       -7.649065
    7       -7.046401
    8       -6.774778
    9        1.308293
   10        1.436500
   11        2.112658
   12        2.519049
 
  0.3333333E+00  0.5555556E-01  0.0000000E+00  0.4629630E-02
    1      -21.333740
    2      -19.379292
    3      -12.121914
    4       -9.358409
    5       -9.090200
    6       -8.053018
    7       -7.312250
    8       -7.131041
    9        1.519193
   10        1.977831
   11        2.325212
   12        2.735005
 
  0.3750000E+00  0.5555556E-01  0.0000000E+00  0.4629630E-02
    1      -21.158590
    2      -19.690984
    3      -11.584486
    4       -9.153571
    5       -8.919084
    6       -8.496115
    7       -7.574155
    8       -7.474840
    9        1.758054
   10        2.523113
   11        2.565811
   12        2.979724
 
  0.4166667E+00  0.5555556E-01  0.0000000E+00  0.4629630E-02
    1      -20.963273
    2      -19.984048
    3      -11.046730
    4       -8.970539
    5       -8.926028
    6       -8.730662
    7       -7.828686
    8       -7.803168
    9        2.024790
   10        2.834203
   11        3.065216
   12        3.253176
 
  0.4583333E+00  0.5555556E-01  0.0000000E+00  0.4629630E-02
    1      -20.747952
    2      -20.258097
    3      -10.512088
    4       -9.468860
    5       -8.676371
    6       -8.526027
    7       -8.113867
    8       -8.073443
    9        2.319278
   10        2.990518
   11        3.129733
   12        3.555541
 
  0.5000000E+00  0.5555556E-01  0.0000000E+00  0.2314815E-02
    1      -20.512819
    2      -20.512819
    3       -9.984562
    4       -9.984562
    5       -8.405338
    6       -8.405338
    7       -8.306458
    8       -8.306458
    9        2.641319
   10        2.641319
   11        3.448933
   12        3.448933
 
  0.0000000E+00  0.8333333E-01  0.0000000E+00  0.2314815E-02
    1      -21.931934
    2      -16.542964
    3      -15.755362
    4      -10.062802
    5      -10.019300
    6       -6.477795
    7       -6.025190
    8       -4.724535
    9       -1.223929
   10        0.705709
   11        1.505420
   12        1.902998
 
  0.4166667E-01  0.8333333E-01  0.0000000E+00  0.4629630E-02
    1      -21.921551
    2      -16.745995
    3      -15.537999
    4      -10.050523
    5      -10.008493
    6       -6.517122
    7       -6.043218
    8       -4.797277
    9       -1.137874
   10        0.719800
   11        1.519625
   12        1.917399
 
  0.8333333E-01  0.8333333E-01  0.0000000E+00  0.4629630E-02
    1      -21.890409
    2      -17.116745
    3      -15.124372
    4      -10.013706
    5       -9.976096
    6       -6.628813
    7       -6.101855
    8       -4.996380
    9       -0.899009
   10        0.762069
   11        1.562236
   12        1.960602
 
  0.1250000E+00  0.8333333E-01  0.0000000E+00  0.4629630E-02
    1      -21.838530
    2      -17.510824
    3      -14.659249
    4       -9.952408
    5       -9.922193
    6       -6.799794
    7       -6.209037
    8       -5.281534
    9       -0.548189
   10        0.832511
   11        1.633243
   12        2.032608
 
  0.1666667E+00  0.8333333E-01  0.0000000E+00  0.4629630E-02
    1      -21.765949
    2      -17.900652
    3      -14.170843
    4       -9.866727
    5       -9.846919
    6       -7.018090
    7       -6.368480
    8       -5.615908
    9       -0.123142
   10        0.931114
   11        1.732626
   12        2.133414
 
  0.2083333E+00  0.8333333E-01  0.0000000E+00  0.4629630E-02
    1      -21.672717
    2      -18.278645
    3      -13.667664
    4       -9.756803
    5       -9.750464
    6       -7.275506
    7       -6.577566
    8       -5.974155
    9        0.349546
   10        1.057858
   11        1.860356
   12        2.263020
 
  0.2500000E+00  0.8333333E-01  0.0000000E+00  0.4629630E-02
    1      -21.558902
    2      -18.641769
    3      -13.153994
    4       -9.633068
    5       -9.622824
    6       -7.567760
    7       -6.828047
    8       -6.340360
    9        0.852385
   10        1.212714
   11        2.016393
   12        2.421422
 
  0.2916667E+00  0.8333333E-01  0.0000000E+00  0.4629630E-02
    1      -21.424587
    2      -18.988456
    3      -12.633011
    4       -9.495022
    5       -9.465034
    6       -7.893987
    7       -7.107471
    8       -6.704593
    9        1.373563
   10        1.395643
   11        2.200681
   12        2.608616
 
  0.3333333E+00  0.8333333E-01  0.0000000E+00  0.4629630E-02
    1      -21.269873
    2      -19.317745
    3      -12.107721
    4       -9.336659
    5       -9.283737
    6       -8.255445
    7       -7.401353
    8       -7.060485
    9        1.606598
   10        1.904521
   11        2.413143
   12        2.824592
 
  0.3750000E+00  0.8333333E-01  0.0000000E+00  0.4629630E-02
    1      -21.094879
    2      -19.628970
    3      -11.581344
    4       -9.158341
    5       -9.079312
    6       -8.653161
    7       -7.696175
    8       -7.403788
    9        1.845517
   10        2.438512
   11        2.653663
   12        3.069340
 
  0.4166667E+00  0.8333333E-01  0.0000000E+00  0.4629630E-02
    1      -20.899746
    2      -19.921633
    3      -11.057554
    4       -9.085675
    5       -8.960447
    6       -8.852231
    7       -7.982048
    8       -7.731559
    9        2.112322
   10        2.922037
   11        2.969533
   12        3.342838
 
  0.4583333E+00  0.8333333E-01  0.0000000E+00  0.4629630E-02
    1      -20.684641
    2      -20.195337
    3      -10.540651
    4       -9.548570
    5       -8.743360
    6       -8.603078
    7       -8.253346
    8       -8.041681
    9        2.406907
   10        3.078676
   11        3.217743
   12        3.488304
 
  0.5000000E+00  0.8333333E-01  0.0000000E+00  0.2314815E-02
    1      -20.449762
    2      -20.449762
    3      -10.035700
    4      -10.035700
    5       -8.507478
    6       -8.507478
    7       -8.332586
    8       -8.332586
    9        2.729114
   10        2.729114
   11        3.537337
   12        3.537391
 
  0.0000000E+00  0.1111111E+00  0.0000000E+00  0.2314815E-02
    1      -21.841884
    2      -16.465034
    3      -15.687895
    4      -10.363352
    5       -9.956322
    6       -6.799237
    7       -6.238225
    8       -4.615705
    9       -1.280507
   10        0.827764
   11        1.629074
   12        2.028330
 
  0.4166667E-01  0.1111111E+00  0.0000000E+00  0.4629630E-02
    1      -21.831511
    2      -16.667875
    3      -15.471282
    4      -10.352191
    5       -9.944078
    6       -6.844186
    7       -6.246300
    8       -4.690025
    9       -1.193882
   10        0.841855
   11        1.643268
   12        2.042731
 
  0.8333333E-01  0.1111111E+00  0.0000000E+00  0.4629630E-02
    1      -21.800401
    2      -17.037447
    3      -15.060544
    4      -10.318711
    5       -9.907366
    6       -6.968455
    7       -6.279973
    8       -4.892537
    9       -0.954630
   10        0.884128
   11        1.685846
   12        2.085935
 
  0.1250000E+00  0.1111111E+00  0.0000000E+00  0.4629630E-02
    1      -21.748574
    2      -17.430095
    3      -14.599808
    4      -10.262913
    5       -9.846242
    6       -7.152007
    7       -6.355819
    8       -5.180889
    9       -0.605644
   10        0.954579
   11        1.756796
   12        2.157943
 
  0.1666667E+00  0.1111111E+00  0.0000000E+00  0.4629630E-02
    1      -21.676067
    2      -17.818571
    3      -14.117124
    4      -10.184793
    5       -9.760805
    6       -7.378414
    7       -6.484295
    8       -5.517378
    9       -0.185510
   10        1.053199
   11        1.856098
   12        2.258754
 
  0.2083333E+00  0.1111111E+00  0.0000000E+00  0.4629630E-02
    1      -21.582936
    2      -18.195363
    3      -13.621187
    4      -10.084324
    5       -9.651197
    6       -7.636785
    7       -6.667843
    8       -5.876670
    9        0.279230
   10        1.179972
   11        1.983722
   12        2.388368
 
  0.2500000E+00  0.1111111E+00  0.0000000E+00  0.4629630E-02
    1      -21.469247
    2      -18.557440
    3      -13.116647
    4       -9.961430
    5       -9.517608
    6       -7.920505
    7       -6.902533
    8       -6.243126
    9        0.771432
   10        1.334866
   11        2.139626
   12        2.546781
 
  0.2916667E+00  0.1111111E+00  0.0000000E+00  0.4629630E-02
    1      -21.335085
    2      -18.903224
    3      -12.607213
    4       -9.815958
    5       -9.360279
    6       -8.226387
    7       -7.179622
    8       -6.607091
    9        1.279672
   10        1.517840
   11        2.323757
   12        2.733990
 
  0.3333333E+00  0.1111111E+00  0.0000000E+00  0.4629630E-02
    1      -21.180556
    2      -19.231735
    3      -12.096625
    4       -9.647622
    5       -9.179517
    6       -8.554274
    7       -7.486793
    8       -6.962398
    9        1.728844
   10        1.795792
   11        2.536041
   12        2.949986
 
  0.3750000E+00  0.1111111E+00  0.0000000E+00  0.4629630E-02
    1      -21.005782
    2      -19.542292
    3      -11.589080
    4       -9.455954
    5       -8.975700
    6       -8.906525
    7       -7.809460
    8       -7.304943
    9        1.967813
   10        2.313513
   11        2.776381
   12        3.194760
 
  0.4166667E+00  0.1111111E+00  0.0000000E+00  0.4629630E-02
    1      -20.810910
    2      -19.834381
    3      -11.089485
    4       -9.286685
    5       -9.240274
    6       -8.749297
    7       -8.132657
    8       -7.631874
    9        2.234670
   10        2.827639
   11        3.044634
   12        3.468297
 
  0.4583333E+00  0.1111111E+00  0.0000000E+00  0.4629630E-02
    1      -20.596115
    2      -20.107594
    3      -10.603545
    4       -9.697221
    5       -8.999779
    6       -8.500888
    7       -8.443627
    8       -7.941135
    9        2.529319
   10        3.201400
   11        3.333391
   12        3.340514
 
  0.5000000E+00  0.1111111E+00  0.0000000E+00  0.2314815E-02
    1      -20.361597
    2      -20.361597
    3      -10.137495
    4      -10.137495
    5       -8.733957
    6       -8.733957
    7       -8.231197
    8       -8.231197
    9        2.851627
   10        2.851627
   11        3.660860
   12        3.660860
 
  0.0000000E+00  0.1388889E+00  0.0000000E+00  0.2314815E-02
    1      -21.726261
    2      -16.364889
    3      -15.604735
    4      -10.765855
    5       -9.819815
    6       -7.179753
    7       -6.501105
    8       -4.476016
    9       -1.361906
   10        0.984756
   11        1.787965
   12        2.189486
 
  0.4166667E-01  0.1388889E+00  0.0000000E+00  0.4629630E-02
    1      -21.715902
    2      -16.567851
    3      -15.388855
    4      -10.754107
    5       -9.807619
    6       -7.229512
    7       -6.499396
    8       -4.552666
    9       -1.274291
   10        0.998843
   11        1.802141
   12        2.203886
 
  0.8333333E-01  0.1388889E+00  0.0000000E+00  0.4629630E-02
    1      -21.684831
    2      -16.936047
    3      -14.982113
    4      -10.718818
    5       -9.771047
    6       -7.364433
    7       -6.508100
    8       -4.760111
    9       -1.034125
   10        1.041103
   11        1.844666
   12        2.247088
 
  0.1250000E+00  0.1388889E+00  0.0000000E+00  0.4629630E-02
    1      -21.633073
    2      -17.326831
    3      -14.527799
    4      -10.659834
    5       -9.710160
    6       -7.558675
    7       -6.551256
    8       -5.052951
    9       -0.687324
   10        1.111539
   11        1.915526
   12        2.319093
 
  0.1666667E+00  0.1388889E+00  0.0000000E+00  0.4629630E-02
    1      -21.560666
    2      -17.713512
    3      -14.053728
    4      -10.576872
    5       -9.625056
    6       -7.792488
    7       -6.645039
    8       -5.392300
    9       -0.273616
   10        1.210150
   11        2.014696
   12        2.419903
 
  0.2083333E+00  0.1388889E+00  0.0000000E+00  0.4629630E-02
    1      -21.467663
    2      -18.088700
    3      -13.568962
    4      -10.469469
    5       -9.515879
    6       -8.053309
    7       -6.796194
    8       -5.752925
    9        0.180633
   10        1.336922
   11        2.142143
   12        2.549519
 
  0.2500000E+00  0.1388889E+00  0.0000000E+00  0.4629630E-02
    1      -21.354137
    2      -18.449380
    3      -13.078852
    4      -10.336910
    5       -9.382819
    6       -8.333252
    7       -7.004452
    8       -6.119621
    9        0.658839
   10        1.491828
   11        2.297818
   12        2.707940
 
  0.2916667E+00  0.1388889E+00  0.0000000E+00  0.4629630E-02
    1      -21.220177
    2      -18.793958
    3      -12.588135
    4      -10.178132
    5       -9.226121
    6       -8.627613
    7       -7.264395
    8       -6.483122
    9        1.150159
   10        1.674826
   11        2.481658
   12        2.895160
 
  0.3333333E+00  0.1388889E+00  0.0000000E+00  0.4629630E-02
    1      -21.065889
    2      -19.121435
    3      -12.101919
    4       -9.991638
    5       -9.046091
    6       -8.934273
    7       -7.566784
    8       -6.837553
    9        1.646993
   10        1.885857
   11        2.693579
   12        3.111172
 
  0.3750000E+00  0.1388889E+00  0.0000000E+00  0.4629630E-02
    1      -20.891404
    2      -19.431105
    3      -11.626057
    4       -9.775498
    5       -9.253571
    6       -8.843107
    7       -7.899551
    8       -7.178999
    9        2.124853
   10        2.143612
   11        2.933468
   12        3.355968
 
  0.4166667E+00  0.1388889E+00  0.0000000E+00  0.4629630E-02
    1      -20.696876
    2      -19.722434
    3      -11.167047
    4       -9.588253
    5       -9.527682
    6       -8.617637
    7       -8.248577
    8       -7.504736
    9        2.391732
   10        2.635412
   11        3.201168
   12        3.629534
 
  0.4583333E+00  0.1388889E+00  0.0000000E+00  0.4629630E-02
    1      -20.482486
    2      -19.994997
    3      -10.731203
    4       -9.943001
    5       -9.247059
    6       -8.598660
    7       -8.370254
    8       -7.812787
    9        2.686395
   10        3.118460
   11        3.358545
   12        3.496350
 
  0.5000000E+00  0.1388889E+00  0.0000000E+00  0.2314815E-02
    1      -20.248444
    2      -20.248444
    3      -10.322940
    4      -10.322940
    5       -8.935273
    6       -8.935273
    7       -8.101673
    8       -8.101673
    9        3.008721
   10        3.008721
   11        3.588616
   12        3.588617
 
  0.0000000E+00  0.1666667E+00  0.0000000E+00  0.2314815E-02
    1      -21.585188
    2      -16.242573
    3      -15.509722
    4      -11.205947
    5       -9.653594
    6       -7.603917
    7       -6.807033
    8       -4.305651
    9       -1.473839
   10        1.176693
   11        1.982013
   12        2.386470
 
  0.4166667E-01  0.1666667E+00  0.0000000E+00  0.4629630E-02
    1      -21.574845
    2      -16.446364
    3      -15.294337
    4      -11.193205
    5       -9.641458
    6       -7.657930
    7       -6.795757
    8       -4.385731
    9       -1.384484
   10        1.190768
   11        1.996162
   12        2.400868
 
  0.8333333E-01  0.1666667E+00  0.0000000E+00  0.4629630E-02
    1      -21.543826
    2      -16.813108
    3      -14.893133
    4      -11.154831
    5       -9.605072
    6       -7.802305
    7       -6.779583
    8       -4.600216
    9       -1.142327
   10        1.232998
   11        2.038602
   12        2.444064
 
  0.1250000E+00  0.1666667E+00  0.0000000E+00  0.4629630E-02
    1      -21.492153
    2      -17.201555
    3      -14.448349
    4      -11.090355
    5       -9.544495
    6       -8.006236
    7       -6.789001
    8       -4.899175
    9       -0.797765
   10        1.303389
   11        2.109313
   12        2.516060
 
  0.1666667E+00  0.1666667E+00  0.0000000E+00  0.4629630E-02
    1      -21.419867
    2      -17.585925
    3      -13.987511
    4      -10.998920
    5       -9.459828
    6       -8.247271
    7       -6.845143
    8       -5.242219
    9       -0.391929
   10        1.401951
   11        2.208264
   12        2.616861
 
  0.2083333E+00  0.1666667E+00  0.0000000E+00  0.4629630E-02
    1      -21.327026
    2      -17.959039
    3      -13.520441
    4      -10.879167
    5       -9.351216
    6       -8.511669
    7       -6.958591
    8       -5.604415
    9        0.049273
   10        1.528679
   11        2.335404
   12        2.746470
 
  0.2500000E+00  0.1666667E+00  0.0000000E+00  0.4629630E-02
    1      -21.213704
    2      -18.317914
    3      -13.053850
    4      -10.729089
    5       -9.218852
    6       -8.790851
    7       -7.132394
    8       -5.971223
    9        0.510150
   10        1.683555
   11        2.490658
   12        2.904888
 
  0.2916667E+00  0.1666667E+00  0.0000000E+00  0.4629630E-02
    1      -21.079993
    2      -18.660942
    3      -12.594307
    4      -10.545945
    5       -9.079345
    6       -9.062985
    7       -7.364086
    8       -6.333937
    9        0.980735
   10        1.866537
   11        2.673914
   12        3.092112
 
  0.3333333E+00  0.1666667E+00  0.0000000E+00  0.4629630E-02
    1      -20.926009
    2      -18.987092
    3      -12.148921
    4      -10.326437
    5       -9.373881
    6       -8.883921
    7       -7.647095
    8       -6.687066
    9        1.454211
   10        2.077562
   11        2.884990
   12        3.308136
 
  0.3750000E+00  0.1666667E+00  0.0000000E+00  0.4629630E-02
    1      -20.751887
    2      -19.295628
    3      -11.724836
    4      -10.067598
    5       -9.673088
    6       -8.682042
    7       -7.971882
    8       -7.026952
    9        1.925576
   10        2.316553
   11        3.123508
   12        3.552948
 
  0.4166667E+00  0.1666667E+00  0.0000000E+00  0.4629630E-02
    1      -20.557792
    2      -19.585989
    3      -11.327508
    4       -9.977500
    5       -9.768741
    6       -8.457813
    7       -8.326787
    8       -7.351030
    9        2.390880
   10        2.583417
   11        3.388125
   12        3.826535
 
  0.4583333E+00  0.1666667E+00  0.0000000E+00  0.4629630E-02
    1      -20.343912
    2      -19.857726
    3      -10.958486
    4      -10.289744
    5       -9.433856
    6       -8.698529
    7       -8.211803
    8       -7.657423
    9        2.846669
   10        2.878046
   11        3.550058
   12        3.641090
 
  0.5000000E+00  0.1666667E+00  0.0000000E+00  0.2314815E-02
    1      -20.110470
    2      -20.110470
    3      -10.614612
    4      -10.614612
    5       -9.072564
    6       -9.072564
    7       -7.944715
    8       -7.944715
    9        3.200312
   10        3.200312
   11        3.288677
   12        3.288677
 