<?xml version="1.0" encoding="ISO-8859-1"?>
<modeling>
 <generator>
  <i name="program" type="string">vasp </i>
  <i name="version" type="string">5.3.5  </i>
  <i name="subversion" type="string">31Mar14 (build Mar 02 2015 18:14:16) complex                          parallel </i>
  <i name="platform" type="string">LinuxIFC </i>
  <i name="date" type="string">2018 08 11 </i>
  <i name="time" type="string">01:35:10 </i>
 </generator>
 <incar>
  <i type="string" name="SYSTEM">  gr</i>
  <i type="string" name="PREC">accurate : accuracy</i>
  <i type="string" name="ALGO"> FAST.</i>
  <i type="int" name="NELM">   100</i>
  <i type="int" name="NELMDL">    -3</i>
  <i type="int" name="NELMIN">     5</i>
  <i type="int" name="IBRION">     1</i>
  <i name="EDIFF">      0.00000000</i>
  <i name="EDIFFG">     -0.00000100</i>
  <i type="int" name="NSW">   400</i>
  <i type="int" name="ISIF">     2</i>
  <i name="ENCUT">   2000.00000000</i>
  <i type="int" name="ISMEAR">     0</i>
  <i name="SIGMA">      0.05000000</i>
  <i type="int" name="NWRITE">     2</i>
  <i type="logical" name="LWAVE"> F  </i>
  <i type="logical" name="LCHARG"> F  </i>
  <i type="int" name="NELM">   100</i>
 </incar>
 <kpoints>
  <generation param="Gamma">
   <v type="int" name="divisions">      24       36        1 </v>
   <v name="usershift">      0.00000000       0.00000000       0.00000000 </v>
   <v name="genvec1">      0.04166667       0.00000000       0.00000000 </v>
   <v name="genvec2">      0.00000000       0.02777778       0.00000000 </v>
   <v name="genvec3">      0.00000000       0.00000000       1.00000000 </v>
   <v name="shift">      0.00000000       0.00000000       0.00000000 </v>
  </generation>
  <varray name="kpointlist" >
   <v>       0.00000000       0.00000000       0.00000000 </v>
   <v>       0.04166667       0.00000000       0.00000000 </v>
   <v>       0.08333333       0.00000000       0.00000000 </v>
   <v>       0.12500000       0.00000000       0.00000000 </v>
   <v>       0.16666667       0.00000000       0.00000000 </v>
   <v>       0.20833333       0.00000000       0.00000000 </v>
   <v>       0.25000000       0.00000000       0.00000000 </v>
   <v>       0.29166667       0.00000000       0.00000000 </v>
   <v>       0.33333333       0.00000000       0.00000000 </v>
   <v>       0.37500000       0.00000000       0.00000000 </v>
   <v>       0.41666667       0.00000000       0.00000000 </v>
   <v>       0.45833333       0.00000000       0.00000000 </v>
   <v>       0.50000000       0.00000000       0.00000000 </v>
   <v>       0.00000000       0.02777778       0.00000000 </v>
   <v>       0.04166667       0.02777778       0.00000000 </v>
   <v>       0.08333333       0.02777778       0.00000000 </v>
   <v>       0.12500000       0.02777778       0.00000000 </v>
   <v>       0.16666667       0.02777778       0.00000000 </v>
   <v>       0.20833333       0.02777778       0.00000000 </v>
   <v>       0.25000000       0.02777778       0.00000000 </v>
   <v>       0.29166667       0.02777778       0.00000000 </v>
   <v>       0.33333333       0.02777778       0.00000000 </v>
   <v>       0.37500000       0.02777778       0.00000000 </v>
   <v>       0.41666667       0.02777778       0.00000000 </v>
   <v>       0.45833333       0.02777778       0.00000000 </v>
   <v>       0.50000000       0.02777778       0.00000000 </v>
   <v>       0.00000000       0.05555556       0.00000000 </v>
   <v>       0.04166667       0.05555556       0.00000000 </v>
   <v>       0.08333333       0.05555556       0.00000000 </v>
   <v>       0.12500000       0.05555556       0.00000000 </v>
   <v>       0.16666667       0.05555556       0.00000000 </v>
   <v>       0.20833333       0.05555556       0.00000000 </v>
   <v>       0.25000000       0.05555556       0.00000000 </v>
   <v>       0.29166667       0.05555556       0.00000000 </v>
   <v>       0.33333333       0.05555556       0.00000000 </v>
   <v>       0.37500000       0.05555556       0.00000000 </v>
   <v>       0.41666667       0.05555556       0.00000000 </v>
   <v>       0.45833333       0.05555556       0.00000000 </v>
   <v>       0.50000000       0.05555556       0.00000000 </v>
   <v>       0.00000000       0.08333333       0.00000000 </v>
   <v>       0.04166667       0.08333333       0.00000000 </v>
   <v>       0.08333333       0.08333333       0.00000000 </v>
   <v>       0.12500000       0.08333333       0.00000000 </v>
   <v>       0.16666667       0.08333333       0.00000000 </v>
   <v>       0.20833333       0.08333333       0.00000000 </v>
   <v>       0.25000000       0.08333333       0.00000000 </v>
   <v>       0.29166667       0.08333333       0.00000000 </v>
   <v>       0.33333333       0.08333333       0.00000000 </v>
   <v>       0.37500000       0.08333333       0.00000000 </v>
   <v>       0.41666667       0.08333333       0.00000000 </v>
   <v>       0.45833333       0.08333333       0.00000000 </v>
   <v>       0.50000000       0.08333333       0.00000000 </v>
   <v>       0.00000000       0.11111111       0.00000000 </v>
   <v>       0.04166667       0.11111111       0.00000000 </v>
   <v>       0.08333333       0.11111111       0.00000000 </v>
   <v>       0.12500000       0.11111111       0.00000000 </v>
   <v>       0.16666667       0.11111111       0.00000000 </v>
   <v>       0.20833333       0.11111111       0.00000000 </v>
   <v>       0.25000000       0.11111111       0.00000000 </v>
   <v>       0.29166667       0.11111111       0.00000000 </v>
   <v>       0.33333333       0.11111111       0.00000000 </v>
   <v>       0.37500000       0.11111111       0.00000000 </v>
   <v>       0.41666667       0.11111111       0.00000000 </v>
   <v>       0.45833333       0.11111111       0.00000000 </v>
   <v>       0.50000000       0.11111111       0.00000000 </v>
   <v>       0.00000000       0.13888889       0.00000000 </v>
   <v>       0.04166667       0.13888889       0.00000000 </v>
   <v>       0.08333333       0.13888889       0.00000000 </v>
   <v>       0.12500000       0.13888889       0.00000000 </v>
   <v>       0.16666667       0.13888889       0.00000000 </v>
   <v>       0.20833333       0.13888889       0.00000000 </v>
   <v>       0.25000000       0.13888889       0.00000000 </v>
   <v>       0.29166667       0.13888889       0.00000000 </v>
   <v>       0.33333333       0.13888889       0.00000000 </v>
   <v>       0.37500000       0.13888889       0.00000000 </v>
   <v>       0.41666667       0.13888889       0.00000000 </v>
   <v>       0.45833333       0.13888889       0.00000000 </v>
   <v>       0.50000000       0.13888889       0.00000000 </v>
   <v>       0.00000000       0.16666667       0.00000000 </v>
   <v>       0.04166667       0.16666667       0.00000000 </v>
   <v>       0.08333333       0.16666667       0.00000000 </v>
   <v>       0.12500000       0.16666667       0.00000000 </v>
   <v>       0.16666667       0.16666667       0.00000000 </v>
   <v>       0.20833333       0.16666667       0.00000000 </v>
   <v>       0.25000000       0.16666667       0.00000000 </v>
   <v>       0.29166667       0.16666667       0.00000000 </v>
   <v>       0.33333333       0.16666667       0.00000000 </v>
   <v>       0.37500000       0.16666667       0.00000000 </v>
   <v>       0.41666667       0.16666667       0.00000000 </v>
   <v>       0.45833333       0.16666667       0.00000000 </v>
   <v>       0.50000000       0.16666667       0.00000000 </v>
   <v>       0.00000000       0.19444444       0.00000000 </v>
   <v>       0.04166667       0.19444444       0.00000000 </v>
   <v>       0.08333333       0.19444444       0.00000000 </v>
   <v>       0.12500000       0.19444444       0.00000000 </v>
   <v>       0.16666667       0.19444444       0.00000000 </v>
   <v>       0.20833333       0.19444444       0.00000000 </v>
   <v>       0.25000000       0.19444444       0.00000000 </v>
   <v>       0.29166667       0.19444444       0.00000000 </v>
   <v>       0.33333333       0.19444444       0.00000000 </v>
   <v>       0.37500000       0.19444444       0.00000000 </v>
   <v>       0.41666667       0.19444444       0.00000000 </v>
   <v>       0.45833333       0.19444444       0.00000000 </v>
   <v>       0.50000000       0.19444444       0.00000000 </v>
   <v>       0.00000000       0.22222222       0.00000000 </v>
   <v>       0.04166667       0.22222222       0.00000000 </v>
   <v>       0.08333333       0.22222222       0.00000000 </v>
   <v>       0.12500000       0.22222222       0.00000000 </v>
   <v>       0.16666667       0.22222222       0.00000000 </v>
   <v>       0.20833333       0.22222222       0.00000000 </v>
   <v>       0.25000000       0.22222222       0.00000000 </v>
   <v>       0.29166667       0.22222222       0.00000000 </v>
   <v>       0.33333333       0.22222222       0.00000000 </v>
   <v>       0.37500000       0.22222222       0.00000000 </v>
   <v>       0.41666667       0.22222222       0.00000000 </v>
   <v>       0.45833333       0.22222222       0.00000000 </v>
   <v>       0.50000000       0.22222222       0.00000000 </v>
   <v>       0.00000000       0.25000000       0.00000000 </v>
   <v>       0.04166667       0.25000000       0.00000000 </v>
   <v>       0.08333333       0.25000000       0.00000000 </v>
   <v>       0.12500000       0.25000000       0.00000000 </v>
   <v>       0.16666667       0.25000000       0.00000000 </v>
   <v>       0.20833333       0.25000000       0.00000000 </v>
   <v>       0.25000000       0.25000000       0.00000000 </v>
   <v>       0.29166667       0.25000000       0.00000000 </v>
   <v>       0.33333333       0.25000000       0.00000000 </v>
   <v>       0.37500000       0.25000000       0.00000000 </v>
   <v>       0.41666667       0.25000000       0.00000000 </v>
   <v>       0.45833333       0.25000000       0.00000000 </v>
   <v>       0.50000000       0.25000000       0.00000000 </v>
   <v>       0.00000000       0.27777778       0.00000000 </v>
   <v>       0.04166667       0.27777778       0.00000000 </v>
   <v>       0.08333333       0.27777778       0.00000000 </v>
   <v>       0.12500000       0.27777778       0.00000000 </v>
   <v>       0.16666667       0.27777778       0.00000000 </v>
   <v>       0.20833333       0.27777778       0.00000000 </v>
   <v>       0.25000000       0.27777778       0.00000000 </v>
   <v>       0.29166667       0.27777778       0.00000000 </v>
   <v>       0.33333333       0.27777778       0.00000000 </v>
   <v>       0.37500000       0.27777778       0.00000000 </v>
   <v>       0.41666667       0.27777778       0.00000000 </v>
   <v>       0.45833333       0.27777778       0.00000000 </v>
   <v>       0.50000000       0.27777778       0.00000000 </v>
   <v>       0.00000000       0.30555556       0.00000000 </v>
   <v>       0.04166667       0.30555556       0.00000000 </v>
   <v>       0.08333333       0.30555556       0.00000000 </v>
   <v>       0.12500000       0.30555556       0.00000000 </v>
   <v>       0.16666667       0.30555556       0.00000000 </v>
   <v>       0.20833333       0.30555556       0.00000000 </v>
   <v>       0.25000000       0.30555556       0.00000000 </v>
   <v>       0.29166667       0.30555556       0.00000000 </v>
   <v>       0.33333333       0.30555556       0.00000000 </v>
   <v>       0.37500000       0.30555556       0.00000000 </v>
   <v>       0.41666667       0.30555556       0.00000000 </v>
   <v>       0.45833333       0.30555556       0.00000000 </v>
   <v>       0.50000000       0.30555556       0.00000000 </v>
   <v>       0.00000000       0.33333333       0.00000000 </v>
   <v>       0.04166667       0.33333333       0.00000000 </v>
   <v>       0.08333333       0.33333333       0.00000000 </v>
   <v>       0.12500000       0.33333333       0.00000000 </v>
   <v>       0.16666667       0.33333333       0.00000000 </v>
   <v>       0.20833333       0.33333333       0.00000000 </v>
   <v>       0.25000000       0.33333333       0.00000000 </v>
   <v>       0.29166667       0.33333333       0.00000000 </v>
   <v>       0.33333333       0.33333333       0.00000000 </v>
   <v>       0.37500000       0.33333333       0.00000000 </v>
   <v>       0.41666667       0.33333333       0.00000000 </v>
   <v>       0.45833333       0.33333333       0.00000000 </v>
   <v>       0.50000000       0.33333333       0.00000000 </v>
   <v>       0.00000000       0.36111111       0.00000000 </v>
   <v>       0.04166667       0.36111111       0.00000000 </v>
   <v>       0.08333333       0.36111111       0.00000000 </v>
   <v>       0.12500000       0.36111111       0.00000000 </v>
   <v>       0.16666667       0.36111111       0.00000000 </v>
   <v>       0.20833333       0.36111111       0.00000000 </v>
   <v>       0.25000000       0.36111111       0.00000000 </v>
   <v>       0.29166667       0.36111111       0.00000000 </v>
   <v>       0.33333333       0.36111111       0.00000000 </v>
   <v>       0.37500000       0.36111111       0.00000000 </v>
   <v>       0.41666667       0.36111111       0.00000000 </v>
   <v>       0.45833333       0.36111111       0.00000000 </v>
   <v>       0.50000000       0.36111111       0.00000000 </v>
   <v>       0.00000000       0.38888889       0.00000000 </v>
   <v>       0.04166667       0.38888889       0.00000000 </v>
   <v>       0.08333333       0.38888889       0.00000000 </v>
   <v>       0.12500000       0.38888889       0.00000000 </v>
   <v>       0.16666667       0.38888889       0.00000000 </v>
   <v>       0.20833333       0.38888889       0.00000000 </v>
   <v>       0.25000000       0.38888889       0.00000000 </v>
   <v>       0.29166667       0.38888889       0.00000000 </v>
   <v>       0.33333333       0.38888889       0.00000000 </v>
   <v>       0.37500000       0.38888889       0.00000000 </v>
   <v>       0.41666667       0.38888889       0.00000000 </v>
   <v>       0.45833333       0.38888889       0.00000000 </v>
   <v>       0.50000000       0.38888889       0.00000000 </v>
   <v>       0.00000000       0.41666667       0.00000000 </v>
   <v>       0.04166667       0.41666667       0.00000000 </v>
   <v>       0.08333333       0.41666667       0.00000000 </v>
   <v>       0.12500000       0.41666667       0.00000000 </v>
   <v>       0.16666667       0.41666667       0.00000000 </v>
   <v>       0.20833333       0.41666667       0.00000000 </v>
   <v>       0.25000000       0.41666667       0.00000000 </v>
   <v>       0.29166667       0.41666667       0.00000000 </v>
   <v>       0.33333333       0.41666667       0.00000000 </v>
   <v>       0.37500000       0.41666667       0.00000000 </v>
   <v>       0.41666667       0.41666667       0.00000000 </v>
   <v>       0.45833333       0.41666667       0.00000000 </v>
   <v>       0.50000000       0.41666667       0.00000000 </v>
   <v>       0.00000000       0.44444444       0.00000000 </v>
   <v>       0.04166667       0.44444444       0.00000000 </v>
   <v>       0.08333333       0.44444444       0.00000000 </v>
   <v>       0.12500000       0.44444444       0.00000000 </v>
   <v>       0.16666667       0.44444444       0.00000000 </v>
   <v>       0.20833333       0.44444444       0.00000000 </v>
   <v>       0.25000000       0.44444444       0.00000000 </v>
   <v>       0.29166667       0.44444444       0.00000000 </v>
   <v>       0.33333333       0.44444444       0.00000000 </v>
   <v>       0.37500000       0.44444444       0.00000000 </v>
   <v>       0.41666667       0.44444444       0.00000000 </v>
   <v>       0.45833333       0.44444444       0.00000000 </v>
   <v>       0.50000000       0.44444444       0.00000000 </v>
   <v>       0.00000000       0.47222222       0.00000000 </v>
   <v>       0.04166667       0.47222222       0.00000000 </v>
   <v>       0.08333333       0.47222222       0.00000000 </v>
   <v>       0.12500000       0.47222222       0.00000000 </v>
   <v>       0.16666667       0.47222222       0.00000000 </v>
   <v>       0.20833333       0.47222222       0.00000000 </v>
   <v>       0.25000000       0.47222222       0.00000000 </v>
   <v>       0.29166667       0.47222222       0.00000000 </v>
   <v>       0.33333333       0.47222222       0.00000000 </v>
   <v>       0.37500000       0.47222222       0.00000000 </v>
   <v>       0.41666667       0.47222222       0.00000000 </v>
   <v>       0.45833333       0.47222222       0.00000000 </v>
   <v>       0.50000000       0.47222222       0.00000000 </v>
   <v>       0.00000000       0.50000000       0.00000000 </v>
   <v>       0.04166667       0.50000000       0.00000000 </v>
   <v>       0.08333333       0.50000000       0.00000000 </v>
   <v>       0.12500000       0.50000000       0.00000000 </v>
   <v>       0.16666667       0.50000000       0.00000000 </v>
   <v>       0.20833333       0.50000000       0.00000000 </v>
   <v>       0.25000000       0.50000000       0.00000000 </v>
   <v>       0.29166667       0.50000000       0.00000000 </v>
   <v>       0.33333333       0.50000000       0.00000000 </v>
   <v>       0.37500000       0.50000000       0.00000000 </v>
   <v>       0.41666667       0.50000000       0.00000000 </v>
   <v>       0.45833333       0.50000000       0.00000000 </v>
   <v>       0.50000000       0.50000000       0.00000000 </v>
  </varray>
  <varray name="weights" >
   <v>       0.00115741 </v>
   <v>       0.00231481 </v>
   <v>       0.00231481 </v>
   <v>       0.00231481 </v>
   <v>       0.00231481 </v>
   <v>       0.00231481 </v>
   <v>       0.00231481 </v>
   <v>       0.00231481 </v>
   <v>       0.00231481 </v>
   <v>       0.00231481 </v>
   <v>       0.00231481 </v>
   <v>       0.00231481 </v>
   <v>       0.00115741 </v>
   <v>       0.00231481 </v>
   <v>       0.00462963 </v>
   <v>       0.00462963 </v>
   <v>       0.00462963 </v>
   <v>       0.00462963 </v>
   <v>       0.00462963 </v>
   <v>       0.00462963 </v>
   <v>       0.00462963 </v>
   <v>       0.00462963 </v>
   <v>       0.00462963 </v>
   <v>       0.00462963 </v>
   <v>       0.00462963 </v>
   <v>       0.00231481 </v>
   <v>       0.00231481 </v>
   <v>       0.00462963 </v>
   <v>       0.00462963 </v>
   <v>       0.00462963 </v>
   <v>       0.00462963 </v>
   <v>       0.00462963 </v>
   <v>       0.00462963 </v>
   <v>       0.00462963 </v>
   <v>       0.00462963 </v>
   <v>       0.00462963 </v>
   <v>       0.00462963 </v>
   <v>       0.00462963 </v>
   <v>       0.00231481 </v>
   <v>       0.00231481 </v>
   <v>       0.00462963 </v>
   <v>       0.00462963 </v>
   <v>       0.00462963 </v>
   <v>       0.00462963 </v>
   <v>       0.00462963 </v>
   <v>       0.00462963 </v>
   <v>       0.00462963 </v>
   <v>       0.00462963 </v>
   <v>       0.00462963 </v>
   <v>       0.00462963 </v>
   <v>       0.00462963 </v>
   <v>       0.00231481 </v>
   <v>       0.00231481 </v>
   <v>       0.00462963 </v>
   <v>       0.00462963 </v>
   <v>       0.00462963 </v>
   <v>       0.00462963 </v>
   <v>       0.00462963 </v>
   <v>       0.00462963 </v>
   <v>       0.00462963 </v>
   <v>       0.00462963 </v>
   <v>       0.00462963 </v>
   <v>       0.00462963 </v>
   <v>       0.00462963 </v>
   <v>       0.00231481 </v>
   <v>       0.00231481 </v>
   <v>       0.00462963 </v>
   <v>       0.00462963 </v>
   <v>       0.00462963 </v>
   <v>       0.00462963 </v>
   <v>       0.00462963 </v>
   <v>       0.00462963 </v>
   <v>       0.00462963 </v>
   <v>       0.00462963 </v>
   <v>       0.00462963 </v>
   <v>       0.00462963 </v>
   <v>       0.00462963 </v>
   <v>       0.00231481 </v>
   <v>       0.00231481 </v>
   <v>       0.00462963 </v>
   <v>       0.00462963 </v>
   <v>       0.00462963 </v>
   <v>       0.00462963 </v>
   <v>       0.00462963 </v>
   <v>       0.00462963 </v>
   <v>       0.00462963 </v>
   <v>       0.00462963 </v>
   <v>       0.00462963 </v>
   <v>       0.00462963 </v>
   <v>       0.00462963 </v>
   <v>       0.00231481 </v>
   <v>       0.00231481 </v>
   <v>       0.00462963 </v>
   <v>       0.00462963 </v>
   <v>       0.00462963 </v>
   <v>       0.00462963 </v>
   <v>       0.00462963 </v>
   <v>       0.00462963 </v>
   <v>       0.00462963 </v>
   <v>       0.00462963 </v>
   <v>       0.00462963 </v>
   <v>       0.00462963 </v>
   <v>       0.00462963 </v>
   <v>       0.00231481 </v>
   <v>       0.00231481 </v>
   <v>       0.00462963 </v>
   <v>       0.00462963 </v>
   <v>       0.00462963 </v>
   <v>       0.00462963 </v>
   <v>       0.00462963 </v>
   <v>       0.00462963 </v>
   <v>       0.00462963 </v>
   <v>       0.00462963 </v>
   <v>       0.00462963 </v>
   <v>       0.00462963 </v>
   <v>       0.00462963 </v>
   <v>       0.00231481 </v>
   <v>       0.00231481 </v>
   <v>       0.00462963 </v>
   <v>       0.00462963 </v>
   <v>       0.00462963 </v>
   <v>       0.00462963 </v>
   <v>       0.00462963 </v>
   <v>       0.00462963 </v>
   <v>       0.00462963 </v>
   <v>       0.00462963 </v>
   <v>       0.00462963 </v>
   <v>       0.00462963 </v>
   <v>       0.00462963 </v>
   <v>       0.00231481 </v>
   <v>       0.00231481 </v>
   <v>       0.00462963 </v>
   <v>       0.00462963 </v>
   <v>       0.00462963 </v>
   <v>       0.00462963 </v>
   <v>       0.00462963 </v>
   <v>       0.00462963 </v>
   <v>       0.00462963 </v>
   <v>       0.00462963 </v>
   <v>       0.00462963 </v>
   <v>       0.00462963 </v>
   <v>       0.00462963 </v>
   <v>       0.00231481 </v>
   <v>       0.00231481 </v>
   <v>       0.00462963 </v>
   <v>       0.00462963 </v>
   <v>       0.00462963 </v>
   <v>       0.00462963 </v>
   <v>       0.00462963 </v>
   <v>       0.00462963 </v>
   <v>       0.00462963 </v>
   <v>       0.00462963 </v>
   <v>       0.00462963 </v>
   <v>       0.00462963 </v>
   <v>       0.00462963 </v>
   <v>       0.00231481 </v>
   <v>       0.00231481 </v>
   <v>       0.00462963 </v>
   <v>       0.00462963 </v>
   <v>       0.00462963 </v>
   <v>       0.00462963 </v>
   <v>       0.00462963 </v>
   <v>       0.00462963 </v>
   <v>       0.00462963 </v>
   <v>       0.00462963 </v>
   <v>       0.00462963 </v>
   <v>       0.00462963 </v>
   <v>       0.00462963 </v>
   <v>       0.00231481 </v>
   <v>       0.00231481 </v>
   <v>       0.00462963 </v>
   <v>       0.00462963 </v>
   <v>       0.00462963 </v>
   <v>       0.00462963 </v>
   <v>       0.00462963 </v>
   <v>       0.00462963 </v>
   <v>       0.00462963 </v>
   <v>       0.00462963 </v>
   <v>       0.00462963 </v>
   <v>       0.00462963 </v>
   <v>       0.00462963 </v>
   <v>       0.00231481 </v>
   <v>       0.00231481 </v>
   <v>       0.00462963 </v>
   <v>       0.00462963 </v>
   <v>       0.00462963 </v>
   <v>       0.00462963 </v>
   <v>       0.00462963 </v>
   <v>       0.00462963 </v>
   <v>       0.00462963 </v>
   <v>       0.00462963 </v>
   <v>       0.00462963 </v>
   <v>       0.00462963 </v>
   <v>       0.00462963 </v>
   <v>       0.00231481 </v>
   <v>       0.00231481 </v>
   <v>       0.00462963 </v>
   <v>       0.00462963 </v>
   <v>       0.00462963 </v>
   <v>       0.00462963 </v>
   <v>       0.00462963 </v>
   <v>       0.00462963 </v>
   <v>       0.00462963 </v>
   <v>       0.00462963 </v>
   <v>       0.00462963 </v>
   <v>       0.00462963 </v>
   <v>       0.00462963 </v>
   <v>       0.00231481 </v>
   <v>       0.00231481 </v>
   <v>       0.00462963 </v>
   <v>       0.00462963 </v>
   <v>       0.00462963 </v>
   <v>       0.00462963 </v>
   <v>       0.00462963 </v>
   <v>       0.00462963 </v>
   <v>       0.00462963 </v>
   <v>       0.00462963 </v>
   <v>       0.00462963 </v>
   <v>       0.00462963 </v>
   <v>       0.00462963 </v>
   <v>       0.00231481 </v>
   <v>       0.00231481 </v>
   <v>       0.00462963 </v>
   <v>       0.00462963 </v>
   <v>       0.00462963 </v>
   <v>       0.00462963 </v>
   <v>       0.00462963 </v>
   <v>       0.00462963 </v>
   <v>       0.00462963 </v>
   <v>       0.00462963 </v>
   <v>       0.00462963 </v>
   <v>       0.00462963 </v>
   <v>       0.00462963 </v>
   <v>       0.00231481 </v>
   <v>       0.00115741 </v>
   <v>       0.00231481 </v>
   <v>       0.00231481 </v>
   <v>       0.00231481 </v>
   <v>       0.00231481 </v>
   <v>       0.00231481 </v>
   <v>       0.00231481 </v>
   <v>       0.00231481 </v>
   <v>       0.00231481 </v>
   <v>       0.00231481 </v>
   <v>       0.00231481 </v>
   <v>       0.00231481 </v>
   <v>       0.00115741 </v>
  </varray>
 </kpoints>
 <parameters>
  <separator name="general" >
   <i type="string" name="SYSTEM">gr</i>
   <i type="logical" name="LCOMPAT"> F  </i>
  </separator>
  <separator name="electronic" >
   <i type="string" name="PREC">accura</i>
   <i name="ENMAX">   2000.00000000</i>
   <i name="ENAUG">    644.87300000</i>
   <i name="EDIFF">      0.00000000</i>
   <i type="int" name="IALGO">    68</i>
   <i type="int" name="IWAVPR">    11</i>
   <i type="int" name="NBANDS">    12</i>
   <i name="NELECT">     16.00000000</i>
   <i type="int" name="TURBO">     0</i>
   <i type="int" name="IRESTART">     0</i>
   <i type="int" name="NREBOOT">     0</i>
   <i type="int" name="NMIN">     0</i>
   <i name="EREF">      0.00000000</i>
   <separator name="electronic smearing" >
    <i type="int" name="ISMEAR">     0</i>
    <i name="SIGMA">      0.05000000</i>
    <i name="KSPACING">      0.50000000</i>
    <i type="logical" name="KGAMMA"> T  </i>
   </separator>
   <separator name="electronic projectors" >
    <i type="logical" name="LREAL"> F  </i>
    <v name="ROPT">      0.00000000</v>
    <i type="int" name="LMAXPAW">  -100</i>
    <i type="int" name="LMAXMIX">     2</i>
    <i type="logical" name="NLSPLINE"> F  </i>
   </separator>
   <separator name="electronic startup" >
    <i type="int" name="ISTART">     0</i>
    <i type="int" name="ICHARG">     2</i>
    <i type="int" name="INIWAV">     1</i>
   </separator>
   <separator name="electronic spin" >
    <i type="int" name="ISPIN">     1</i>
    <i type="logical" name="LNONCOLLINEAR"> F  </i>
    <v name="MAGMOM">      1.00000000      1.00000000      1.00000000      1.00000000</v>
    <i name="NUPDOWN">     -1.00000000</i>
    <i type="logical" name="LSORBIT"> F  </i>
    <v name="SAXIS">      0.00000000      0.00000000      1.00000000</v>
    <i type="logical" name="LSPIRAL"> F  </i>
    <v name="QSPIRAL">      0.00000000      0.00000000      0.00000000</v>
    <i type="logical" name="LZEROZ"> F  </i>
   </separator>
   <separator name="electronic exchange-correlation" >
    <i type="logical" name="LASPH"> F  </i>
    <i type="logical" name="LMETAGGA"> F  </i>
   </separator>
   <separator name="electronic convergence" >
    <i type="int" name="NELM">   100</i>
    <i type="int" name="NELMDL">    -3</i>
    <i type="int" name="NELMIN">     5</i>
    <i name="ENINI">   2000.00000000</i>
    <separator name="electronic convergence detail" >
     <i type="logical" name="LDIAG"> T  </i>
     <i type="logical" name="LSUBROT"> F  </i>
     <i name="WEIMIN">      0.00100000</i>
     <i name="EBREAK">      0.00000000</i>
     <i name="DEPER">      0.30000000</i>
     <i type="int" name="NRMM">     4</i>
     <i name="TIME">      0.40000000</i>
    </separator>
   </separator>
   <separator name="electronic mixer" >
    <i name="AMIX">      0.40000000</i>
    <i name="BMIX">      1.00000000</i>
    <i name="AMIN">      0.10000000</i>
    <i name="AMIX_MAG">      1.60000000</i>
    <i name="BMIX_MAG">      1.00000000</i>
    <separator name="electronic mixer details" >
     <i type="int" name="IMIX">     4</i>
     <i type="int" name="MAXMIX">   -45</i>
     <i name="WC">    100.00000000</i>
     <i type="int" name="INIMIX">     1</i>
     <i type="int" name="MIXPRE">     1</i>
     <i type="int" name="MREMOVE">     5</i>
    </separator>
   </separator>
   <separator name="electronic dipolcorrection" >
    <i type="logical" name="LDIPOL"> F  </i>
    <i type="logical" name="LMONO"> F  </i>
    <i type="int" name="IDIPOL">     0</i>
    <i name="EPSILON">      1.00000000</i>
    <v name="DIPOL">   -100.00000000   -100.00000000   -100.00000000</v>
    <i name="EFIELD">      0.00000000</i>
   </separator>
  </separator>
  <separator name="grids" >
   <i type="int" name="NGX">    64</i>
   <i type="int" name="NGY">    40</i>
   <i type="int" name="NGZ">   288</i>
   <i type="int" name="NGXF">   128</i>
   <i type="int" name="NGYF">    80</i>
   <i type="int" name="NGZF">   576</i>
   <i type="logical" name="ADDGRID"> F  </i>
  </separator>
  <separator name="ionic" >
   <i type="int" name="NSW">   400</i>
   <i type="int" name="IBRION">     1</i>
   <i type="int" name="ISIF">     2</i>
   <i name="PSTRESS">      0.00000000</i>
   <i name="EDIFFG">     -0.00000100</i>
   <i type="int" name="NFREE">     0</i>
   <i name="POTIM">      0.50000000</i>
   <i name="SMASS">     -3.00000000</i>
   <i name="SCALEE">      1.00000000</i>
  </separator>
  <separator name="ionic md" >
   <i name="TEBEG">      0.00010000</i>
   <i name="TEEND">      0.00010000</i>
   <i type="int" name="NBLOCK">     1</i>
   <i type="int" name="KBLOCK">   400</i>
   <i type="int" name="NPACO">   256</i>
   <i name="APACO">     16.00000000</i>
  </separator>
  <separator name="symmetry" >
   <i type="int" name="ISYM">     2</i>
   <i name="SYMPREC">      0.00001000</i>
  </separator>
  <separator name="dos" >
   <i type="logical" name="LORBIT"> F  </i>
   <v name="RWIGS">     -1.00000000</v>
   <i type="int" name="NEDOS">   301</i>
   <i name="EMIN">     10.00000000</i>
   <i name="EMAX">    -10.00000000</i>
   <i name="EFERMI">      0.00000000</i>
  </separator>
  <separator name="writing" >
   <i type="int" name="NWRITE">     2</i>
   <i type="logical" name="LWAVE"> F  </i>
   <i type="logical" name="LCHARG"> F  </i>
   <i type="logical" name="LPARD"> F  </i>
   <i type="logical" name="LVTOT"> F  </i>
   <i type="logical" name="LVHAR"> F  </i>
   <i type="logical" name="LELF"> F  </i>
   <i type="logical" name="LOPTICS"> F  </i>
   <v name="STM">      0.00000000      0.00000000      0.00000000      0.00000000      0.00000000      0.00000000      0.00000000</v>
  </separator>
  <separator name="performance" >
   <i type="int" name="NPAR">     4</i>
   <i type="int" name="NSIM">     4</i>
   <i type="int" name="NBLK">    -1</i>
   <i type="logical" name="LPLANE"> T  </i>
   <i type="logical" name="LSCALAPACK"> F  </i>
   <i type="logical" name="LSCAAWARE"> F  </i>
   <i type="logical" name="LSCALU"> F  </i>
   <i type="logical" name="LASYNC"> F  </i>
   <i type="logical" name="LORBITALREAL"> F  </i>
  </separator>
  <separator name="miscellaneous" >
   <i type="int" name="IDIOT">     3</i>
   <i type="logical" name="LMUSIC"> F  </i>
   <v name="POMASS">     12.01100000</v>
   <v name="DARWINR">      0.00000000</v>
   <v name="DARWINV">      1.00000000</v>
   <i type="logical" name="LCORR"> T  </i>
  </separator>
  <i type="logical" name="GGA_COMPAT"> T  </i>
  <i type="logical" name="LBERRY"> F  </i>
  <i type="int" name="ICORELEVEL">     0</i>
  <i type="logical" name="LDAU"> F  </i>
  <i type="int" name="I_CONSTRAINED_M">     0</i>
  <separator name="electronic exchange-correlation" >
   <i type="string" name="GGA">--</i>
   <i type="int" name="VOSKOWN">     0</i>
   <i type="logical" name="LHFCALC"> F  </i>
   <i type="string" name="PRECFOCK"></i>
   <i type="logical" name="LSYMGRAD"> F  </i>
   <i type="logical" name="LHFONE"> F  </i>
   <i type="logical" name="LRHFCALC"> F  </i>
   <i type="logical" name="LTHOMAS"> F  </i>
   <i type="logical" name="LMODELHF"> F  </i>
   <i name="ENCUT4O">     -1.00000000</i>
   <i type="int" name="EXXOEP">     0</i>
   <i type="int" name="FOURORBIT">     0</i>
   <i name="AEXX">      0.00000000</i>
   <i name="HFALPHA">      0.00000000</i>
   <i name="MCALPHA">      0.00000000</i>
   <i name="ALDAX">      1.00000000</i>
   <i name="AGGAX">      1.00000000</i>
   <i name="ALDAC">      1.00000000</i>
   <i name="AGGAC">      1.00000000</i>
   <i type="int" name="NKREDX">     1</i>
   <i type="int" name="NKREDY">     1</i>
   <i type="int" name="NKREDZ">     1</i>
   <i type="logical" name="SHIFTRED"> F  </i>
   <i type="logical" name="ODDONLY"> F  </i>
   <i type="logical" name="EVENONLY"> F  </i>
   <i type="int" name="LMAXFOCK">     0</i>
   <i type="int" name="NMAXFOCKAE">     0</i>
   <i type="logical" name="LFOCKAEDFT"> F  </i>
   <i name="HFSCREEN">      0.00000000</i>
   <i name="HFSCREENC">      0.00000000</i>
   <i type="int" name="NBANDSGWLOW">     0</i>
  </separator>
  <separator name="vdW DFT" >
   <i type="logical" name="LUSE_VDW"> F  </i>
   <i name="Zab_VDW">     -0.84910000</i>
   <i name="PARAM1">      0.12340000</i>
   <i name="PARAM2">      1.00000000</i>
   <i name="PARAM3">      0.00000000</i>
  </separator>
  <separator name="model GW" >
   <i type="int" name="MODEL_GW">     0</i>
   <i name="MODEL_EPS0">     31.62568521</i>
   <i name="MODEL_ALPHA">      1.00000000</i>
  </separator>
  <separator name="linear response parameters" >
   <i type="logical" name="LEPSILON"> F  </i>
   <i type="logical" name="LRPA"> F  </i>
   <i type="logical" name="LNABLA"> F  </i>
   <i type="logical" name="LVEL"> F  </i>
   <i type="int" name="KINTER">     0</i>
   <i name="CSHIFT">      0.10000000</i>
   <i name="OMEGAMAX">     -1.00000000</i>
   <i name="DEG_THRESHOLD">      0.00200000</i>
  </separator>
  <separator name="orbital magnetization" >
   <i type="logical" name="NUCIND"> F  </i>
   <v name="MAGPOS">      0.00000000      0.00000000      0.00000000</v>
   <i type="logical" name="LNICSALL"> T  </i>
   <i type="logical" name="ORBITALMAG"> F  </i>
   <i type="logical" name="LMAGBLOCH"> F  </i>
   <i type="logical" name="LCHIMAG"> F  </i>
   <i type="logical" name="LGAUGE"> T  </i>
   <i type="int" name="MAGATOM">     0</i>
   <v name="MAGDIPOL">      0.00000000      0.00000000      0.00000000</v>
   <v name="AVECCONST">      0.00000000      0.00000000      0.00000000</v>
  </separator>
  <separator name="response functions" >
   <i type="logical" name="LADDER"> F  </i>
   <i type="logical" name="LFXC"> F  </i>
   <i type="logical" name="LHARTREE"> T  </i>
   <i type="int" name="IBSE">     0</i>
   <i type="logical" name="LTCTE"> F  </i>
   <i type="logical" name="LTETE"> F  </i>
   <i type="logical" name="LTRIPLET"> F  </i>
   <i type="logical" name="LFXCEPS"> F  </i>
   <i type="logical" name="LFXHEG"> F  </i>
   <i type="logical" name="L2ORDER"> F  </i>
   <i type="logical" name="LUSEW"> F  </i>
   <i name="ENCUTGW">     -2.00000000</i>
   <i name="ENCUTGWSOFT">     -2.00000000</i>
   <i name="ENCUTLF">     -1.00000000</i>
   <i type="int" name="LMAXMP2">    -1</i>
   <i name="SCISSOR">      0.00000000</i>
   <i type="int" name="NOMEGA">     0</i>
   <i type="int" name="NOMEGAR">     0</i>
   <i type="int" name="NBANDSGW">    -1</i>
   <i type="int" name="NBANDSO">    -1</i>
   <i type="int" name="NBANDSV">    -1</i>
   <i type="int" name="NELM">   100</i>
   <i type="int" name="DIM">     3</i>
   <i type="int" name="ANTIRES">     0</i>
   <i name="OMEGAMAX">    -30.00000000</i>
   <i name="OMEGAMIN">    -30.00000000</i>
   <i name="OMEGATL">   -200.00000000</i>
   <i type="int" name="OMEGAGRID">     0</i>
   <i name="CSHIFT">     -0.10000000</i>
   <i type="logical" name="SELFENERGY"> F  </i>
   <i type="logical" name="LSPECTRAL"> F  </i>
   <i type="logical" name="ODDONLYGW"> F  </i>
   <i type="logical" name="EVENONLYGW"> F  </i>
   <i type="int" name="NKREDLFX">     1</i>
   <i type="int" name="NKREDLFY">     1</i>
   <i type="int" name="NKREDLFZ">     1</i>
   <i type="int" name="MAXMEM">  1800</i>
   <i type="int" name="TELESCOPE">     0</i>
   <i type="int" name="TAUPAR">     1</i>
  </separator>
  <separator name="External order field" >
   <i name="OFIELD_KAPPA">      0.00000000</i>
   <v name="OFIELD_K">      0.00000000      0.00000000      0.00000000</v>
   <i name="OFIELD_Q6_NEAR">      0.00000000</i>
   <i name="OFIELD_Q6_FAR">      0.00000000</i>
   <i name="OFIELD_A">      0.00000000</i>
  </separator>
 </parameters>
 <atominfo>
  <atoms>       4 </atoms>
  <types>       1 </types>
  <array name="atoms" >
   <dimension dim="1">ion</dimension>
   <field type="string">element</field>
   <field type="int">atomtype</field>
   <set>
    <rc><c>C </c><c>   1</c></rc>
    <rc><c>C </c><c>   1</c></rc>
    <rc><c>C </c><c>   1</c></rc>
    <rc><c>C </c><c>   1</c></rc>
   </set>
  </array>
  <array name="atomtypes" >
   <dimension dim="1">type</dimension>
   <field type="int">atomspertype</field>
   <field type="string">element</field>
   <field>mass</field>
   <field>valence</field>
   <field type="string">pseudopotential</field>
   <set>
    <rc><c>   4</c><c>C </c><c>     12.01100000</c><c>      4.00000000</c><c> PAW_PBE C 08Apr2002                    </c></rc>
   </set>
  </array>
 </atominfo>
 <structure name="initialpos" >
  <crystal>
   <varray name="basis" >
    <v>       4.25190054       0.00000000       0.00000000 </v>
    <v>       0.00000000       2.54119857       0.00000000 </v>
    <v>       0.00000000       0.00000000      19.51313214 </v>
   </varray>
   <i name="volume">    210.83790140 </i>
   <varray name="rec_basis" >
    <v>       0.23518894       0.00000000       0.00000000 </v>
    <v>       0.00000000       0.39351510       0.00000000 </v>
    <v>       0.00000000       0.00000000       0.05124754 </v>
   </varray>
  </crystal>
  <varray name="positions" >
   <v>       0.00074775       0.00000000       0.00000000 </v>
   <v>       0.16591892       0.50000000       0.00000000 </v>
   <v>       0.50074775       0.50000000       0.00000000 </v>
   <v>       0.66591892       0.00000000       0.00000000 </v>
  </varray>
 </structure>
 <calculation>
  <scstep>
   <time name="dav">  320.04  322.35</time>
   <time name="total">  322.82  325.40</time>
   <energy>
    <i name="alphaZ">      6.18334092 </i>
    <i name="ewald">   2423.90778764 </i>
    <i name="hartreedc">  -2854.17153960 </i>
    <i name="XCdc">     54.76376898 </i>
    <i name="pawpsdc">    151.32577238 </i>
    <i name="pawaedc">   -155.92769107 </i>
    <i name="eentropy">     -0.00175566 </i>
    <i name="bandstr">    -29.25246113 </i>
    <i name="atom">    588.62352690 </i>
    <i name="e_fr_energy">    185.45074937 </i>
    <i name="e_wo_entrp">    185.45250503 </i>
    <i name="e_0_energy">    185.45162720 </i>
   </energy>
  </scstep>
  <scstep>
   <time name="dav">  479.97  482.00</time>
   <time name="total">  479.98  482.03</time>
   <energy>
    <i name="e_fr_energy">     -9.31000366 </i>
    <i name="e_wo_entrp">     -9.30946029 </i>
    <i name="e_0_energy">     -9.30973197 </i>
   </energy>
  </scstep>
  <scstep>
   <time name="dav">  363.76  364.47</time>
   <time name="total">  397.28  398.06</time>
   <energy>
    <i name="e_fr_energy">    -38.01303106 </i>
    <i name="e_wo_entrp">    -38.01303098 </i>
    <i name="e_0_energy">    -38.01303102 </i>
   </energy>
  </scstep>
  <scstep>
   <time name="diag">   87.24   87.28</time>
   <time name="diis">  352.78  352.94</time>
   <time name="orth">    3.10    3.10</time>
   <time name="total">  478.36  478.66</time>
   <energy>
    <i name="e_fr_energy">    -37.52572665 </i>
    <i name="e_wo_entrp">    -37.52572664 </i>
    <i name="e_0_energy">    -37.52572665 </i>
   </energy>
  </scstep>
  <scstep>
   <time name="diag">   87.31   87.32</time>
   <time name="diis">  353.63  353.71</time>
   <time name="orth">    3.09    3.09</time>
   <time name="total">  479.41  479.56</time>
   <energy>
    <i name="e_fr_energy">    -36.83761110 </i>
    <i name="e_wo_entrp">    -36.83761110 </i>
    <i name="e_0_energy">    -36.83761110 </i>
   </energy>
  </scstep>
  <scstep>
   <time name="diag">   87.29   87.31</time>
   <time name="diis">  385.17  385.75</time>
   <time name="orth">    3.07    3.08</time>
   <time name="total">  511.11  511.77</time>
   <energy>
    <i name="e_fr_energy">    -36.84042861 </i>
    <i name="e_wo_entrp">    -36.84042860 </i>
    <i name="e_0_energy">    -36.84042861 </i>
   </energy>
  </scstep>
  <scstep>
   <time name="diag">   87.25   87.28</time>
   <time name="diis">  350.15  351.64</time>
   <time name="orth">    3.07    3.09</time>
   <time name="total">  475.17  476.87</time>
   <energy>
    <i name="e_fr_energy">    -36.83163066 </i>
    <i name="e_wo_entrp">    -36.83163066 </i>
    <i name="e_0_energy">    -36.83163066 </i>
   </energy>
  </scstep>
  <scstep>
   <time name="diag">   87.26   87.31</time>
   <time name="diis">  367.12  367.33</time>
   <time name="orth">    3.07    3.07</time>
   <time name="total">  493.51  493.81</time>
   <energy>
    <i name="e_fr_energy">    -36.82720379 </i>
    <i name="e_wo_entrp">    -36.82720378 </i>
    <i name="e_0_energy">    -36.82720379 </i>
   </energy>
  </scstep>
  <scstep>
   <time name="diag">   87.26   87.29</time>
   <time name="diis">  352.76  352.95</time>
   <time name="orth">    3.09    3.10</time>
   <time name="total">  479.14  479.51</time>
   <energy>
    <i name="e_fr_energy">    -36.82706164 </i>
    <i name="e_wo_entrp">    -36.82706164 </i>
    <i name="e_0_energy">    -36.82706164 </i>
   </energy>
  </scstep>
  <scstep>
   <time name="diag">   87.18   87.20</time>
   <time name="diis">  353.89  353.96</time>
   <time name="orth">    3.08    3.08</time>
   <time name="total">  480.60  480.72</time>
   <energy>
    <i name="e_fr_energy">    -36.82697575 </i>
    <i name="e_wo_entrp">    -36.82697574 </i>
    <i name="e_0_energy">    -36.82697575 </i>
   </energy>
  </scstep>
  <scstep>
   <time name="diag">   87.14   87.15</time>
   <time name="diis">  354.31  354.40</time>
   <time name="orth">    3.07    3.07</time>
   <time name="total">  480.95  481.16</time>
   <energy>
    <i name="e_fr_energy">    -36.82919854 </i>
    <i name="e_wo_entrp">    -36.82919854 </i>
    <i name="e_0_energy">    -36.82919854 </i>
   </energy>
  </scstep>
  <scstep>
   <time name="diag">   87.10   87.15</time>
   <time name="diis">  355.00  355.57</time>
   <time name="orth">    3.09    3.09</time>
   <time name="total">  481.66  482.32</time>
   <energy>
    <i name="e_fr_energy">    -36.82969453 </i>
    <i name="e_wo_entrp">    -36.82969453 </i>
    <i name="e_0_energy">    -36.82969453 </i>
   </energy>
  </scstep>
  <scstep>
   <time name="diag">   87.16   87.18</time>
   <time name="diis">  360.40  361.07</time>
   <time name="orth">    3.07    3.07</time>
   <time name="total">  486.39  487.14</time>
   <energy>
    <i name="e_fr_energy">    -36.82996263 </i>
    <i name="e_wo_entrp">    -36.82996263 </i>
    <i name="e_0_energy">    -36.82996263 </i>
   </energy>
  </scstep>
  <scstep>
   <time name="diag">   87.20   87.22</time>
   <time name="diis">  357.11  357.18</time>
   <time name="orth">    3.09    3.09</time>
   <time name="total">  483.83  483.93</time>
   <energy>
    <i name="e_fr_energy">    -36.83004377 </i>
    <i name="e_wo_entrp">    -36.83004377 </i>
    <i name="e_0_energy">    -36.83004377 </i>
   </energy>
  </scstep>
  <scstep>
   <time name="diag">   86.88   87.12</time>
   <time name="diis">  353.25  355.00</time>
   <time name="orth">    3.07    3.09</time>
   <time name="total">  479.30  482.46</time>
   <energy>
    <i name="e_fr_energy">    -36.83005624 </i>
    <i name="e_wo_entrp">    -36.83005624 </i>
    <i name="e_0_energy">    -36.83005624 </i>
   </energy>
  </scstep>
  <scstep>
   <time name="diag">   86.89   87.05</time>
   <time name="diis">  351.49  351.60</time>
   <time name="orth">    3.08    3.08</time>
   <time name="total">  477.82  478.14</time>
   <energy>
    <i name="e_fr_energy">    -36.83007025 </i>
    <i name="e_wo_entrp">    -36.83007025 </i>
    <i name="e_0_energy">    -36.83007025 </i>
   </energy>
  </scstep>
  <scstep>
   <time name="diag">   87.05   87.07</time>
   <time name="diis">  360.80  360.98</time>
   <time name="orth">    3.09    3.09</time>
   <time name="total">  487.33  487.57</time>
   <energy>
    <i name="e_fr_energy">    -36.83007635 </i>
    <i name="e_wo_entrp">    -36.83007635 </i>
    <i name="e_0_energy">    -36.83007635 </i>
   </energy>
  </scstep>
  <scstep>
   <time name="diag">   87.07   87.10</time>
   <time name="diis">  348.06  350.20</time>
   <time name="orth">    3.08    3.09</time>
   <time name="total">  474.23  476.79</time>
   <energy>
    <i name="e_fr_energy">    -36.83007746 </i>
    <i name="e_wo_entrp">    -36.83007746 </i>
    <i name="e_0_energy">    -36.83007746 </i>
   </energy>
  </scstep>
  <scstep>
   <time name="diag">   86.90   87.21</time>
   <time name="diis">  342.33  345.55</time>
   <time name="orth">    3.07    3.09</time>
   <time name="total">  468.36  472.32</time>
   <energy>
    <i name="e_fr_energy">    -36.83007814 </i>
    <i name="e_wo_entrp">    -36.83007814 </i>
    <i name="e_0_energy">    -36.83007814 </i>
   </energy>
  </scstep>
  <scstep>
   <time name="diag">   86.48   87.25</time>
   <time name="diis">  277.95  280.76</time>
   <time name="orth">    3.07    3.09</time>
   <time name="total">  403.92  407.65</time>
   <energy>
    <i name="e_fr_energy">    -36.83007819 </i>
    <i name="e_wo_entrp">    -36.83007819 </i>
    <i name="e_0_energy">    -36.83007819 </i>
   </energy>
  </scstep>
  <scstep>
   <time name="diag">   87.17   87.22</time>
   <time name="diis">  267.94  268.73</time>
   <time name="orth">    3.07    3.07</time>
   <time name="total">  394.47  395.99</time>
   <energy>
    <i name="e_fr_energy">    -36.83007820 </i>
    <i name="e_wo_entrp">    -36.83007820 </i>
    <i name="e_0_energy">    -36.83007820 </i>
   </energy>
  </scstep>
  <scstep>
   <time name="diag">   87.13   87.21</time>
   <time name="diis">  243.45  243.66</time>
   <time name="orth">    3.07    3.08</time>
   <time name="total">  370.04  370.41</time>
   <energy>
    <i name="e_fr_energy">    -36.83007820 </i>
    <i name="e_wo_entrp">    -36.83007820 </i>
    <i name="e_0_energy">    -36.83007820 </i>
   </energy>
  </scstep>
  <scstep>
   <time name="diag">   86.48   87.29</time>
   <time name="diis">  230.91  232.28</time>
   <time name="orth">    3.06    3.07</time>
   <time name="total">  356.61  359.11</time>
   <energy>
    <i name="e_fr_energy">    -36.83007820 </i>
    <i name="e_wo_entrp">    -36.83007820 </i>
    <i name="e_0_energy">    -36.83007820 </i>
   </energy>
  </scstep>
  <scstep>
   <time name="diag">   86.20   87.14</time>
   <time name="diis">  215.44  217.51</time>
   <time name="orth">    3.07    3.11</time>
   <time name="total">  340.65  344.40</time>
   <energy>
    <i name="e_fr_energy">    -36.83007820 </i>
    <i name="e_wo_entrp">    -36.83007820 </i>
    <i name="e_0_energy">    -36.83007820 </i>
   </energy>
  </scstep>
  <scstep>
   <time name="diag">   86.80   87.22</time>
   <time name="diis">  206.51  207.37</time>
   <time name="orth">    3.08    3.10</time>
   <time name="total">  332.39  334.39</time>
   <energy>
    <i name="e_fr_energy">    -36.83007820 </i>
    <i name="e_wo_entrp">    -36.83007820 </i>
    <i name="e_0_energy">    -36.83007820 </i>
   </energy>
  </scstep>
  <scstep>
   <time name="diag">   86.51   87.23</time>
   <time name="diis">  197.40  199.31</time>
   <time name="orth">    3.08    3.13</time>
   <time name="total">  323.12  326.14</time>
   <energy>
    <i name="e_fr_energy">    -36.83007820 </i>
    <i name="e_wo_entrp">    -36.83007820 </i>
    <i name="e_0_energy">    -36.83007820 </i>
   </energy>
  </scstep>
  <scstep>
   <time name="diag">   86.89   87.17</time>
   <time name="diis">  195.14  195.56</time>
   <time name="orth">    3.07    3.09</time>
   <time name="total">  321.11  323.69</time>
   <energy>
    <i name="e_fr_energy">    -36.83007820 </i>
    <i name="e_wo_entrp">    -36.83007820 </i>
    <i name="e_0_energy">    -36.83007820 </i>
   </energy>
  </scstep>
  <scstep>
   <time name="diag">   86.87   87.23</time>
   <time name="diis">  188.36  189.20</time>
   <time name="orth">    3.09    3.10</time>
   <time name="total">  313.74  315.04</time>
   <energy>
    <i name="e_fr_energy">    -36.83007820 </i>
    <i name="e_wo_entrp">    -36.83007820 </i>
    <i name="e_0_energy">    -36.83007820 </i>
   </energy>
  </scstep>
  <scstep>
   <time name="diag">   86.90   87.27</time>
   <time name="diis">  184.76  185.64</time>
   <time name="orth">    3.08    3.08</time>
   <time name="total">  309.29  310.66</time>
   <energy>
    <i name="e_fr_energy">    -36.83007820 </i>
    <i name="e_wo_entrp">    -36.83007820 </i>
    <i name="e_0_energy">    -36.83007820 </i>
   </energy>
  </scstep>
  <scstep>
   <time name="diag">   87.03   87.19</time>
   <time name="diis">  182.36  183.10</time>
   <time name="orth">    3.09    3.11</time>
   <time name="total">  308.05  309.12</time>
   <energy>
    <i name="e_fr_energy">    -36.83007820 </i>
    <i name="e_wo_entrp">    -36.83007820 </i>
    <i name="e_0_energy">    -36.83007820 </i>
   </energy>
  </scstep>
  <scstep>
   <time name="diag">   86.80   87.24</time>
   <time name="diis">  179.58  179.95</time>
   <time name="orth">    3.08    3.08</time>
   <time name="total">  304.65  305.48</time>
   <energy>
    <i name="e_fr_energy">    -36.83007820 </i>
    <i name="e_wo_entrp">    -36.83007820 </i>
    <i name="e_0_energy">    -36.83007820 </i>
   </energy>
  </scstep>
  <scstep>
   <time name="diag">   87.36   87.38</time>
   <time name="diis">  178.03  178.19</time>
   <time name="orth">    3.09    3.10</time>
   <time name="total">  303.57  303.76</time>
   <energy>
    <i name="e_fr_energy">    -36.83007820 </i>
    <i name="e_wo_entrp">    -36.83007820 </i>
    <i name="e_0_energy">    -36.83007820 </i>
   </energy>
  </scstep>
  <scstep>
   <time name="diag">   87.07   87.10</time>
   <time name="diis">  176.68  176.80</time>
   <time name="orth">    3.07    3.08</time>
   <time name="total">  302.09  302.30</time>
   <energy>
    <i name="e_fr_energy">    -36.83007820 </i>
    <i name="e_wo_entrp">    -36.83007820 </i>
    <i name="e_0_energy">    -36.83007820 </i>
   </energy>
  </scstep>
  <scstep>
   <time name="diag">   87.02   87.04</time>
   <time name="diis">  177.73  177.77</time>
   <time name="orth">    3.10    3.10</time>
   <time name="total">  303.00  303.08</time>
   <energy>
    <i name="e_fr_energy">    -36.83007820 </i>
    <i name="e_wo_entrp">    -36.83007820 </i>
    <i name="e_0_energy">    -36.83007820 </i>
   </energy>
  </scstep>
  <scstep>
   <time name="diag">   86.99   87.06</time>
   <time name="diis">  176.26  176.50</time>
   <time name="orth">    3.08    3.08</time>
   <time name="total">  268.96  269.29</time>
   <energy>
    <i name="alphaZ">      6.18334092 </i>
    <i name="ewald">   2423.90778764 </i>
    <i name="hartreedc">  -2918.25588444 </i>
    <i name="XCdc">     57.06917776 </i>
    <i name="pawpsdc">    267.28217374 </i>
    <i name="pawaedc">   -272.38677294 </i>
    <i name="eentropy">     -0.00000000 </i>
    <i name="bandstr">   -189.25342779 </i>
    <i name="atom">    588.62352690 </i>
    <i name="e_fr_energy">    -36.83007820 </i>
    <i name="e_wo_entrp">    -36.83007820 </i>
    <i name="e_0_energy">    -36.83007820 </i>
   </energy>
  </scstep>
  <structure>
   <crystal>
    <varray name="basis" >
     <v>       4.25190054       0.00000000       0.00000000 </v>
     <v>       0.00000000       2.54119857       0.00000000 </v>
     <v>       0.00000000       0.00000000      19.51313214 </v>
    </varray>
    <i name="volume">    210.83790140 </i>
    <varray name="rec_basis" >
     <v>       0.23518894       0.00000000       0.00000000 </v>
     <v>       0.00000000       0.39351510       0.00000000 </v>
     <v>       0.00000000       0.00000000       0.05124754 </v>
    </varray>
   </crystal>
   <varray name="positions" >
    <v>       0.00074775       0.00000000       0.00000000 </v>
    <v>       0.16591892       0.50000000       0.00000000 </v>
    <v>       0.50074775       0.50000000       0.00000000 </v>
    <v>       0.66591892       0.00000000       0.00000000 </v>
   </varray>
  </structure>
  <varray name="forces" >
   <v>      -0.00097193       0.00000000       0.00000000 </v>
   <v>       0.00097193       0.00000000       0.00000000 </v>
   <v>      -0.00097193      -0.00000000       0.00000000 </v>
   <v>       0.00097193       0.00000000       0.00000000 </v>
  </varray>
  <varray name="stress" >
   <v>      -0.00778364       0.00000000       0.00000000 </v>
   <v>       0.00000000     -48.60783208       0.00000000 </v>
   <v>       0.00000000       0.00000000      -0.01008728 </v>
  </varray>
  <energy>
   <i name="e_fr_energy">    -36.83007820 </i>
   <i name="e_wo_entrp">    -36.83007820 </i>
   <i name="e_0_energy">     -0.00000000 </i>
  </energy>
  <time name="totalsc">14276.8114323.23</time>
 </calculation>
 <calculation>
  <scstep>
   <time name="dav">  329.57  330.17</time>
   <time name="total">  365.73  366.35</time>
   <energy>
    <i name="alphaZ">      6.18334092 </i>
    <i name="ewald">   2423.90897382 </i>
    <i name="hartreedc">  -2918.25640172 </i>
    <i name="XCdc">     57.06921178 </i>
    <i name="pawpsdc">    267.28217374 </i>
    <i name="pawaedc">   -272.38677293 </i>
    <i name="eentropy">     -0.00000000 </i>
    <i name="bandstr">   -189.25413043 </i>
    <i name="atom">    588.62352690 </i>
    <i name="e_fr_energy">    -36.83007792 </i>
    <i name="e_wo_entrp">    -36.83007792 </i>
    <i name="e_0_energy">    -36.83007792 </i>
   </energy>
  </scstep>
  <scstep>
   <time name="diag">   87.09   87.12</time>
   <time name="diis">  352.34  352.41</time>
   <time name="orth">    3.09    3.09</time>
   <time name="total">  477.75  477.85</time>
   <energy>
    <i name="e_fr_energy">    -36.83007794 </i>
    <i name="e_wo_entrp">    -36.83007794 </i>
    <i name="e_0_energy">    -36.83007794 </i>
   </energy>
  </scstep>
  <scstep>
   <time name="diag">   87.18   87.20</time>
   <time name="diis">  356.93  357.44</time>
   <time name="orth">    3.08    3.08</time>
   <time name="total">  483.47  484.05</time>
   <energy>
    <i name="e_fr_energy">    -36.83007794 </i>
    <i name="e_wo_entrp">    -36.83007794 </i>
    <i name="e_0_energy">    -36.83007794 </i>
   </energy>
  </scstep>
  <scstep>
   <time name="diag">   86.98   87.01</time>
   <time name="diis">  362.67  362.80</time>
   <time name="orth">    3.10    3.10</time>
   <time name="total">  489.06  489.41</time>
   <energy>
    <i name="e_fr_energy">    -36.83007794 </i>
    <i name="e_wo_entrp">    -36.83007794 </i>
    <i name="e_0_energy">    -36.83007794 </i>
   </energy>
  </scstep>
  <scstep>
   <time name="diag">   87.03   87.09</time>
   <time name="diis">  264.03  264.39</time>
   <time name="orth">    3.08    3.08</time>
   <time name="total">  390.17  390.66</time>
   <energy>
    <i name="e_fr_energy">    -36.83007794 </i>
    <i name="e_wo_entrp">    -36.83007794 </i>
    <i name="e_0_energy">    -36.83007794 </i>
   </energy>
  </scstep>
  <scstep>
   <time name="diag">   87.02   87.05</time>
   <time name="diis">  239.69  239.78</time>
   <time name="orth">    3.08    3.08</time>
   <time name="total">  332.42  332.55</time>
   <energy>
    <i name="alphaZ">      6.18334092 </i>
    <i name="ewald">   2423.90897382 </i>
    <i name="hartreedc">  -2918.25686008 </i>
    <i name="XCdc">     57.06923166 </i>
    <i name="pawpsdc">    267.28421407 </i>
    <i name="pawaedc">   -272.38882220 </i>
    <i name="eentropy">     -0.00000000 </i>
    <i name="bandstr">   -189.25368303 </i>
    <i name="atom">    588.62352690 </i>
    <i name="e_fr_energy">    -36.83007794 </i>
    <i name="e_wo_entrp">    -36.83007794 </i>
    <i name="e_0_energy">    -36.83007794 </i>
   </energy>
  </scstep>
  <structure>
   <crystal>
    <varray name="basis" >
     <v>       4.25190054       0.00000000       0.00000000 </v>
     <v>       0.00000000       2.54119857       0.00000000 </v>
     <v>       0.00000000       0.00000000      19.51313214 </v>
    </varray>
    <i name="volume">    210.83790140 </i>
    <varray name="rec_basis" >
     <v>       0.23518894       0.00000000       0.00000000 </v>
     <v>       0.00000000       0.39351510       0.00000000 </v>
     <v>       0.00000000       0.00000000       0.05124754 </v>
    </varray>
   </crystal>
   <varray name="positions" >
    <v>       0.00073672       0.00000000       0.00000000 </v>
    <v>       0.16592995       0.50000000       0.00000000 </v>
    <v>       0.50073672       0.50000000       0.00000000 </v>
    <v>       0.66592995       0.00000000       0.00000000 </v>
   </varray>
  </structure>
  <varray name="forces" >
   <v>       0.00383607       0.00000000      -0.00000000 </v>
   <v>      -0.00383607      -0.00000000       0.00000000 </v>
   <v>       0.00383607      -0.00000000      -0.00000000 </v>
   <v>      -0.00383607       0.00000000       0.00000000 </v>
  </varray>
  <varray name="stress" >
   <v>       0.01189558       0.00000000       0.00000000 </v>
   <v>       0.00000000     -48.61822980       0.00000000 </v>
   <v>       0.00000000       0.00000000      -0.01002298 </v>
  </varray>
  <energy>
   <i name="e_fr_energy">    -36.83007794 </i>
   <i name="e_wo_entrp">    -36.83007794 </i>
   <i name="e_0_energy">     -0.00000000 </i>
  </energy>
  <time name="totalsc"> 2645.58 2648.08</time>
 </calculation>
 <calculation>
  <scstep>
   <time name="dav">  342.00  342.63</time>
   <time name="total">  378.10  378.77</time>
   <energy>
    <i name="alphaZ">      6.18334092 </i>
    <i name="ewald">   2423.90802718 </i>
    <i name="hartreedc">  -2918.25646345 </i>
    <i name="XCdc">     57.06920495 </i>
    <i name="pawpsdc">    267.28422152 </i>
    <i name="pawaedc">   -272.38882980 </i>
    <i name="eentropy">     -0.00000000 </i>
    <i name="bandstr">   -189.25310645 </i>
    <i name="atom">    588.62352690 </i>
    <i name="e_fr_energy">    -36.83007823 </i>
    <i name="e_wo_entrp">    -36.83007822 </i>
    <i name="e_0_energy">    -36.83007823 </i>
   </energy>
  </scstep>
  <scstep>
   <time name="diag">   87.14   87.20</time>
   <time name="diis">  353.49  353.61</time>
   <time name="orth">    3.12    3.12</time>
   <time name="total">  479.76  479.97</time>
   <energy>
    <i name="e_fr_energy">    -36.83007823 </i>
    <i name="e_wo_entrp">    -36.83007823 </i>
    <i name="e_0_energy">    -36.83007823 </i>
   </energy>
  </scstep>
  <scstep>
   <time name="diag">   87.10   87.13</time>
   <time name="diis">  354.72  354.79</time>
   <time name="orth">    3.07    3.07</time>
   <time name="total">  480.15  480.28</time>
   <energy>
    <i name="e_fr_energy">    -36.83007822 </i>
    <i name="e_wo_entrp">    -36.83007822 </i>
    <i name="e_0_energy">    -36.83007822 </i>
   </energy>
  </scstep>
  <scstep>
   <time name="diag">   87.16   87.18</time>
   <time name="diis">  357.02  357.10</time>
   <time name="orth">    3.10    3.10</time>
   <time name="total">  483.38  483.51</time>
   <energy>
    <i name="e_fr_energy">    -36.83007822 </i>
    <i name="e_wo_entrp">    -36.83007822 </i>
    <i name="e_0_energy">    -36.83007822 </i>
   </energy>
  </scstep>
  <scstep>
   <time name="diag">   86.95   86.98</time>
   <time name="diis">  250.81  251.25</time>
   <time name="orth">    3.07    3.07</time>
   <time name="total">  376.79  377.43</time>
   <energy>
    <i name="e_fr_energy">    -36.83007822 </i>
    <i name="e_wo_entrp">    -36.83007822 </i>
    <i name="e_0_energy">    -36.83007822 </i>
   </energy>
  </scstep>
  <scstep>
   <time name="diag">   87.05   87.09</time>
   <time name="diis">  232.65  232.69</time>
   <time name="orth">    3.09    3.09</time>
   <time name="total">  358.74  358.84</time>
   <energy>
    <i name="e_fr_energy">    -36.83007822 </i>
    <i name="e_wo_entrp">    -36.83007822 </i>
    <i name="e_0_energy">    -36.83007822 </i>
   </energy>
  </scstep>
  <scstep>
   <time name="diag">   87.03   87.05</time>
   <time name="diis">  235.05  235.53</time>
   <time name="orth">    3.08    3.08</time>
   <time name="total">  361.46  362.03</time>
   <energy>
    <i name="e_fr_energy">    -36.83007822 </i>
    <i name="e_wo_entrp">    -36.83007822 </i>
    <i name="e_0_energy">    -36.83007822 </i>
   </energy>
  </scstep>
  <scstep>
   <time name="diag">   86.43   87.08</time>
   <time name="diis">  220.30  221.21</time>
   <time name="orth">    3.10    3.10</time>
   <time name="total">  312.47  314.09</time>
   <energy>
    <i name="alphaZ">      6.18334092 </i>
    <i name="ewald">   2423.90802718 </i>
    <i name="hartreedc">  -2918.25610358 </i>
    <i name="XCdc">     57.06918882 </i>
    <i name="pawpsdc">    267.28258239 </i>
    <i name="pawaedc">   -272.38718343 </i>
    <i name="eentropy">     -0.00000000 </i>
    <i name="bandstr">   -189.25345742 </i>
    <i name="atom">    588.62352690 </i>
    <i name="e_fr_energy">    -36.83007822 </i>
    <i name="e_wo_entrp">    -36.83007822 </i>
    <i name="e_0_energy">    -36.83007822 </i>
   </energy>
  </scstep>
  <structure>
   <crystal>
    <varray name="basis" >
     <v>       4.25190054       0.00000000       0.00000000 </v>
     <v>       0.00000000       2.54119857       0.00000000 </v>
     <v>       0.00000000       0.00000000      19.51313214 </v>
    </varray>
    <i name="volume">    210.83790140 </i>
    <varray name="rec_basis" >
     <v>       0.23518894       0.00000000       0.00000000 </v>
     <v>       0.00000000       0.39351510       0.00000000 </v>
     <v>       0.00000000       0.00000000       0.05124754 </v>
    </varray>
   </crystal>
   <varray name="positions" >
    <v>       0.00074552       0.00000000      -0.00000000 </v>
    <v>       0.16592115       0.50000000       0.00000000 </v>
    <v>       0.50074552       0.50000000      -0.00000000 </v>
    <v>       0.66592115       0.00000000       0.00000000 </v>
   </varray>
  </structure>
  <varray name="forces" >
   <v>       0.00000440      -0.00000000      -0.00000000 </v>
   <v>      -0.00000440       0.00000000       0.00000000 </v>
   <v>       0.00000440       0.00000000      -0.00000000 </v>
   <v>      -0.00000440      -0.00000000       0.00000000 </v>
  </varray>
  <varray name="stress" >
   <v>      -0.00374286       0.00000000       0.00000000 </v>
   <v>       0.00000000     -48.60998361       0.00000000 </v>
   <v>       0.00000000       0.00000000      -0.01011068 </v>
  </varray>
  <energy>
   <i name="e_fr_energy">    -36.83007822 </i>
   <i name="e_wo_entrp">    -36.83007822 </i>
   <i name="e_0_energy">     -0.00000000 </i>
  </energy>
  <time name="totalsc"> 3336.40 3340.82</time>
 </calculation>
 <calculation>
  <scstep>
   <time name="dav">  266.60  268.52</time>
   <time name="total">  302.15  304.42</time>
   <energy>
    <i name="alphaZ">      6.18334092 </i>
    <i name="ewald">   2423.90802609 </i>
    <i name="hartreedc">  -2918.25610135 </i>
    <i name="XCdc">     57.06918880 </i>
    <i name="pawpsdc">    267.28258359 </i>
    <i name="pawaedc">   -272.38718465 </i>
    <i name="eentropy">     -0.00000000 </i>
    <i name="bandstr">   -189.25345853 </i>
    <i name="atom">    588.62352690 </i>
    <i name="e_fr_energy">    -36.83007822 </i>
    <i name="e_wo_entrp">    -36.83007822 </i>
    <i name="e_0_energy">    -36.83007822 </i>
   </energy>
  </scstep>
  <scstep>
   <time name="diag">   86.23   87.08</time>
   <time name="diis">  180.05  180.61</time>
   <time name="orth">    3.09    3.09</time>
   <time name="total">  305.48  307.22</time>
   <energy>
    <i name="e_fr_energy">    -36.83007822 </i>
    <i name="e_wo_entrp">    -36.83007822 </i>
    <i name="e_0_energy">    -36.83007822 </i>
   </energy>
  </scstep>
  <scstep>
   <time name="diag">   86.35   86.97</time>
   <time name="diis">  176.76  177.11</time>
   <time name="orth">    3.07    3.08</time>
   <time name="total">  302.43  303.55</time>
   <energy>
    <i name="e_fr_energy">    -36.83007822 </i>
    <i name="e_wo_entrp">    -36.83007822 </i>
    <i name="e_0_energy">    -36.83007822 </i>
   </energy>
  </scstep>
  <scstep>
   <time name="diag">   86.58   86.97</time>
   <time name="diis">  173.55  174.57</time>
   <time name="orth">    3.09    3.09</time>
   <time name="total">  299.55  301.05</time>
   <energy>
    <i name="e_fr_energy">    -36.83007822 </i>
    <i name="e_wo_entrp">    -36.83007822 </i>
    <i name="e_0_energy">    -36.83007822 </i>
   </energy>
  </scstep>
  <scstep>
   <time name="diag">   86.89   87.04</time>
   <time name="diis">  172.39  173.23</time>
   <time name="orth">    3.09    3.09</time>
   <time name="total">  298.74  299.78</time>
   <energy>
    <i name="e_fr_energy">    -36.83007822 </i>
    <i name="e_wo_entrp">    -36.83007822 </i>
    <i name="e_0_energy">    -36.83007822 </i>
   </energy>
  </scstep>
  <scstep>
   <time name="diag">   86.62   86.92</time>
   <time name="diis">  163.61  164.45</time>
   <time name="orth">    3.07    3.09</time>
   <time name="total">  255.99  257.15</time>
   <energy>
    <i name="alphaZ">      6.18334092 </i>
    <i name="ewald">   2423.90802609 </i>
    <i name="hartreedc">  -2918.25609185 </i>
    <i name="XCdc">     57.06918876 </i>
    <i name="pawpsdc">    267.28258345 </i>
    <i name="pawaedc">   -272.38718452 </i>
    <i name="eentropy">     -0.00000000 </i>
    <i name="bandstr">   -189.25346798 </i>
    <i name="atom">    588.62352690 </i>
    <i name="e_fr_energy">    -36.83007822 </i>
    <i name="e_wo_entrp">    -36.83007822 </i>
    <i name="e_0_energy">    -36.83007822 </i>
   </energy>
  </scstep>
  <structure>
   <crystal>
    <varray name="basis" >
     <v>       4.25190054       0.00000000       0.00000000 </v>
     <v>       0.00000000       2.54119857       0.00000000 </v>
     <v>       0.00000000       0.00000000      19.51313214 </v>
    </varray>
    <i name="volume">    210.83790140 </i>
    <varray name="rec_basis" >
     <v>       0.23518894       0.00000000       0.00000000 </v>
     <v>       0.00000000       0.39351510       0.00000000 </v>
     <v>       0.00000000       0.00000000       0.05124754 </v>
    </varray>
   </crystal>
   <varray name="positions" >
    <v>       0.00074553      -0.00000000      -0.00000000 </v>
    <v>       0.16592114       0.50000000       0.00000000 </v>
    <v>       0.50074553       0.50000000      -0.00000000 </v>
    <v>       0.66592114      -0.00000000       0.00000000 </v>
   </varray>
  </structure>
  <varray name="forces" >
   <v>      -0.00000512      -0.00000000       0.00000000 </v>
   <v>       0.00000512       0.00000000       0.00000000 </v>
   <v>      -0.00000512      -0.00000000       0.00000000 </v>
   <v>       0.00000512       0.00000000       0.00000000 </v>
  </varray>
  <varray name="stress" >
   <v>      -0.00380287       0.00000000       0.00000000 </v>
   <v>       0.00000000     -48.60993448       0.00000000 </v>
   <v>       0.00000000       0.00000000      -0.01009523 </v>
  </varray>
  <energy>
   <i name="e_fr_energy">    -36.83007822 </i>
   <i name="e_wo_entrp">    -36.83007822 </i>
   <i name="e_0_energy">     -0.00000000 </i>
  </energy>
  <time name="totalsc"> 1869.17 1878.21</time>
 </calculation>
 <calculation>
  <scstep>
   <time name="dav">  265.45  265.94</time>
   <time name="total">  301.91  302.41</time>
   <energy>
    <i name="alphaZ">      6.18334092 </i>
    <i name="ewald">   2423.90802668 </i>
    <i name="hartreedc">  -2918.25609163 </i>
    <i name="XCdc">     57.06918877 </i>
    <i name="pawpsdc">    267.28258346 </i>
    <i name="pawaedc">   -272.38718453 </i>
    <i name="eentropy">     -0.00000000 </i>
    <i name="bandstr">   -189.25346879 </i>
    <i name="atom">    588.62352690 </i>
    <i name="e_fr_energy">    -36.83007822 </i>
    <i name="e_wo_entrp">    -36.83007822 </i>
    <i name="e_0_energy">    -36.83007822 </i>
   </energy>
  </scstep>
  <scstep>
   <time name="diag">   87.01   87.06</time>
   <time name="diis">  156.34  156.38</time>
   <time name="orth">    3.09    3.09</time>
   <time name="total">  282.80  282.92</time>
   <energy>
    <i name="e_fr_energy">    -36.83007822 </i>
    <i name="e_wo_entrp">    -36.83007822 </i>
    <i name="e_0_energy">    -36.83007822 </i>
   </energy>
  </scstep>
  <scstep>
   <time name="diag">   87.00   87.04</time>
   <time name="diis">  152.94  153.08</time>
   <time name="orth">    3.07    3.09</time>
   <time name="total">  278.12  278.51</time>
   <energy>
    <i name="e_fr_energy">    -36.83007822 </i>
    <i name="e_wo_entrp">    -36.83007822 </i>
    <i name="e_0_energy">    -36.83007822 </i>
   </energy>
  </scstep>
  <scstep>
   <time name="diag">   86.17   86.94</time>
   <time name="diis">  158.28  159.62</time>
   <time name="orth">    3.07    3.09</time>
   <time name="total">  283.28  285.79</time>
   <energy>
    <i name="e_fr_energy">    -36.83007822 </i>
    <i name="e_wo_entrp">    -36.83007822 </i>
    <i name="e_0_energy">    -36.83007822 </i>
   </energy>
  </scstep>
  <scstep>
   <time name="diag">   86.20   87.12</time>
   <time name="diis">  164.45  165.95</time>
   <time name="orth">    3.08    3.08</time>
   <time name="total">  256.40  258.83</time>
   <energy>
    <i name="alphaZ">      6.18334092 </i>
    <i name="ewald">   2423.90802668 </i>
    <i name="hartreedc">  -2918.25609259 </i>
    <i name="XCdc">     57.06918881 </i>
    <i name="pawpsdc">    267.28258519 </i>
    <i name="pawaedc">   -272.38718627 </i>
    <i name="eentropy">     -0.00000000 </i>
    <i name="bandstr">   -189.25346786 </i>
    <i name="atom">    588.62352690 </i>
    <i name="e_fr_energy">    -36.83007822 </i>
    <i name="e_wo_entrp">    -36.83007822 </i>
    <i name="e_0_energy">    -36.83007822 </i>
   </energy>
  </scstep>
  <structure>
   <crystal>
    <varray name="basis" >
     <v>       4.25190054       0.00000000       0.00000000 </v>
     <v>       0.00000000       2.54119857       0.00000000 </v>
     <v>       0.00000000       0.00000000      19.51313214 </v>
    </varray>
    <i name="volume">    210.83790140 </i>
    <varray name="rec_basis" >
     <v>       0.23518894       0.00000000       0.00000000 </v>
     <v>       0.00000000       0.39351510       0.00000000 </v>
     <v>       0.00000000       0.00000000       0.05124754 </v>
    </varray>
   </crystal>
   <varray name="positions" >
    <v>       0.00074552      -0.00000000      -0.00000000 </v>
    <v>       0.16592114       0.50000000       0.00000000 </v>
    <v>       0.50074552       0.50000000      -0.00000000 </v>
    <v>       0.66592114      -0.00000000       0.00000000 </v>
   </varray>
  </structure>
  <varray name="forces" >
   <v>       0.00000006      -0.00000000      -0.00000000 </v>
   <v>      -0.00000006       0.00000000       0.00000000 </v>
   <v>       0.00000006      -0.00000000      -0.00000000 </v>
   <v>      -0.00000006      -0.00000000       0.00000000 </v>
  </varray>
  <varray name="stress" >
   <v>      -0.00377830       0.00000000       0.00000000 </v>
   <v>       0.00000000     -48.60995528       0.00000000 </v>
   <v>       0.00000000       0.00000000      -0.01008944 </v>
  </varray>
  <energy>
   <i name="e_fr_energy">    -36.83007822 </i>
   <i name="e_wo_entrp">    -36.83007822 </i>
   <i name="e_0_energy">     -0.00000000 </i>
  </energy>
  <time name="totalsc"> 1502.73 1509.76</time>
  <eigenvalues>
   <array>
    <dimension dim="1">band</dimension>
    <dimension dim="2">kpoint</dimension>
    <dimension dim="3">spin</dimension>
    <field>eigene</field>
    <field>occ</field>
    <set>
     <set comment="spin 1">
      <set comment="kpoint 1">
       <r>  -22.0479    1.0000 </r>
       <r>  -16.6432    1.0000 </r>
       <r>  -15.8451    1.0000 </r>
       <r>  -10.2001    1.0000 </r>
       <r>   -9.5288    1.0000 </r>
       <r>   -6.0238    1.0000 </r>
       <r>   -5.7392    1.0000 </r>
       <r>   -4.8647    1.0000 </r>
       <r>   -1.1602    0.0000 </r>
       <r>    0.5489    0.0000 </r>
       <r>    1.3463    0.0000 </r>
       <r>    1.7419    0.0000 </r>
      </set>
      <set comment="kpoint 2">
       <r>  -22.0375    1.0000 </r>
       <r>  -16.8468    1.0000 </r>
       <r>  -15.6266    1.0000 </r>
       <r>  -10.1878    1.0000 </r>
       <r>   -9.5183    1.0000 </r>
       <r>   -6.0477    1.0000 </r>
       <r>   -5.7789    1.0000 </r>
       <r>   -4.9357    1.0000 </r>
       <r>   -1.0747    0.0000 </r>
       <r>    0.5630    0.0000 </r>
       <r>    1.3606    0.0000 </r>
       <r>    1.7563    0.0000 </r>
      </set>
      <set comment="kpoint 3">
       <r>  -22.0063    1.0000 </r>
       <r>  -17.2192    1.0000 </r>
       <r>  -15.2094    1.0000 </r>
       <r>  -10.1508    1.0000 </r>
       <r>   -9.4870    1.0000 </r>
       <r>   -6.1183    1.0000 </r>
       <r>   -5.8965    1.0000 </r>
       <r>   -5.1308    1.0000 </r>
       <r>   -0.8360    0.0000 </r>
       <r>    0.6052    0.0000 </r>
       <r>    1.4032    0.0000 </r>
       <r>    1.7995    0.0000 </r>
      </set>
      <set comment="kpoint 4">
       <r>  -21.9543    1.0000 </r>
       <r>  -17.6151    1.0000 </r>
       <r>  -14.7393    1.0000 </r>
       <r>  -10.0893    1.0000 </r>
       <r>   -9.4350    1.0000 </r>
       <r>   -6.2314    1.0000 </r>
       <r>   -6.0880    1.0000 </r>
       <r>   -5.4122    1.0000 </r>
       <r>   -0.4828    0.0000 </r>
       <r>    0.6756    0.0000 </r>
       <r>    1.4743    0.0000 </r>
       <r>    1.8715    0.0000 </r>
      </set>
      <set comment="kpoint 5">
       <r>  -21.8817    1.0000 </r>
       <r>  -18.0066    1.0000 </r>
       <r>  -14.2444    1.0000 </r>
       <r>  -10.0033    1.0000 </r>
       <r>   -9.3625    1.0000 </r>
       <r>   -6.3814    1.0000 </r>
       <r>   -6.3475    1.0000 </r>
       <r>   -5.7440    1.0000 </r>
       <r>   -0.0516    0.0000 </r>
       <r>    0.7741    0.0000 </r>
       <r>    1.5737    0.0000 </r>
       <r>    1.9723    0.0000 </r>
      </set>
      <set comment="kpoint 6">
       <r>  -21.7883    1.0000 </r>
       <r>  -18.3861    1.0000 </r>
       <r>  -13.7333    1.0000 </r>
       <r>   -9.8930    1.0000 </r>
       <r>   -9.2699    1.0000 </r>
       <r>   -6.6674    1.0000 </r>
       <r>   -6.5612    1.0000 </r>
       <r>   -6.1009    1.0000 </r>
       <r>    0.4309    0.0000 </r>
       <r>    0.9008    0.0000 </r>
       <r>    1.7016    0.0000 </r>
       <r>    2.1018    0.0000 </r>
      </set>
      <set comment="kpoint 7">
       <r>  -21.6743    1.0000 </r>
       <r>  -18.7505    1.0000 </r>
       <r>  -13.2098    1.0000 </r>
       <r>   -9.7586    1.0000 </r>
       <r>   -9.1577    1.0000 </r>
       <r>   -7.0397    1.0000 </r>
       <r>   -6.7639    1.0000 </r>
       <r>   -6.4668    1.0000 </r>
       <r>    0.9469    0.0000 </r>
       <r>    1.0555    0.0000 </r>
       <r>    1.8577    0.0000 </r>
       <r>    2.2602    0.0000 </r>
      </set>
      <set comment="kpoint 8">
       <r>  -21.5398    1.0000 </r>
       <r>  -19.0983    1.0000 </r>
       <r>  -12.6767    1.0000 </r>
       <r>   -9.6002    1.0000 </r>
       <r>   -9.0266    1.0000 </r>
       <r>   -7.4563    1.0000 </r>
       <r>   -6.9824    1.0000 </r>
       <r>   -6.8312    1.0000 </r>
       <r>    1.2384    0.0000 </r>
       <r>    1.4842    0.0000 </r>
       <r>    2.0422    0.0000 </r>
       <r>    2.4474    0.0000 </r>
      </set>
      <set comment="kpoint 9">
       <r>  -21.3849    1.0000 </r>
       <r>  -19.4286    1.0000 </r>
       <r>  -12.1363    1.0000 </r>
       <r>   -9.4183    1.0000 </r>
       <r>   -8.8773    1.0000 </r>
       <r>   -7.9095    1.0000 </r>
       <r>   -7.2106    1.0000 </r>
       <r>   -7.1878    1.0000 </r>
       <r>    1.4492    0.0000 </r>
       <r>    2.0336    0.0000 </r>
       <r>    2.2548    0.0000 </r>
       <r>    2.6633    0.0000 </r>
      </set>
      <set comment="kpoint 10">
       <r>  -21.2096    1.0000 </r>
       <r>  -19.7407    1.0000 </r>
       <r>  -11.5912    1.0000 </r>
       <r>   -9.2131    1.0000 </r>
       <r>   -8.7109    1.0000 </r>
       <r>   -8.3919    1.0000 </r>
       <r>   -7.5319    1.0000 </r>
       <r>   -7.4430    1.0000 </r>
       <r>    1.6880    0.0000 </r>
       <r>    2.4954    0.0000 </r>
       <r>    2.5876    0.0000 </r>
       <r>    2.9080    0.0000 </r>
      </set>
      <set comment="kpoint 11">
       <r>  -21.0141    1.0000 </r>
       <r>  -20.0340    1.0000 </r>
       <r>  -11.0439    1.0000 </r>
       <r>   -8.9852    1.0000 </r>
       <r>   -8.8973    1.0000 </r>
       <r>   -8.5285    1.0000 </r>
       <r>   -7.8607    1.0000 </r>
       <r>   -7.6749    1.0000 </r>
       <r>    1.9546    0.0000 </r>
       <r>    2.7638    0.0000 </r>
       <r>    3.1373    0.0000 </r>
       <r>    3.1814    0.0000 </r>
      </set>
      <set comment="kpoint 12">
       <r>  -20.7986    1.0000 </r>
       <r>  -20.3084    1.0000 </r>
       <r>  -10.4972    1.0000 </r>
       <r>   -9.4199    1.0000 </r>
       <r>   -8.7352    1.0000 </r>
       <r>   -8.3317    1.0000 </r>
       <r>   -8.1718    1.0000 </r>
       <r>   -7.9024    1.0000 </r>
       <r>    2.2490    0.0000 </r>
       <r>    2.9194    0.0000 </r>
       <r>    3.0592    0.0000 </r>
       <r>    3.4836    0.0000 </r>
      </set>
      <set comment="kpoint 13">
       <r>  -20.5633    1.0000 </r>
       <r>  -20.5633    1.0000 </r>
       <r>   -9.9546    1.0000 </r>
       <r>   -9.9546    1.0000 </r>
       <r>   -8.4637    1.0000 </r>
       <r>   -8.4637    1.0000 </r>
       <r>   -8.1222    1.0000 </r>
       <r>   -8.1222    1.0000 </r>
       <r>    2.5708    0.0000 </r>
       <r>    2.5708    0.0000 </r>
       <r>    3.3782    0.0000 </r>
       <r>    3.3782    0.0000 </r>
      </set>
      <set comment="kpoint 14">
       <r>  -22.0350    1.0000 </r>
       <r>  -16.6321    1.0000 </r>
       <r>  -15.8350    1.0000 </r>
       <r>  -10.1848    1.0000 </r>
       <r>   -9.5863    1.0000 </r>
       <r>   -6.0768    1.0000 </r>
       <r>   -5.7717    1.0000 </r>
       <r>   -4.8491    1.0000 </r>
       <r>   -1.1668    0.0000 </r>
       <r>    0.5663    0.0000 </r>
       <r>    1.3640    0.0000 </r>
       <r>    1.7598    0.0000 </r>
      </set>
      <set comment="kpoint 15">
       <r>  -22.0246    1.0000 </r>
       <r>  -16.8356    1.0000 </r>
       <r>  -15.6166    1.0000 </r>
       <r>  -10.1725    1.0000 </r>
       <r>   -9.5758    1.0000 </r>
       <r>   -6.1036    1.0000 </r>
       <r>   -5.8078    1.0000 </r>
       <r>   -4.9203    1.0000 </r>
       <r>   -1.0812    0.0000 </r>
       <r>    0.5804    0.0000 </r>
       <r>    1.3782    0.0000 </r>
       <r>    1.7742    0.0000 </r>
      </set>
      <set comment="kpoint 16">
       <r>  -21.9934    1.0000 </r>
       <r>  -17.2078    1.0000 </r>
       <r>  -15.1998    1.0000 </r>
       <r>  -10.1356    1.0000 </r>
       <r>   -9.5444    1.0000 </r>
       <r>   -6.1832    1.0000 </r>
       <r>   -5.9142    1.0000 </r>
       <r>   -5.1159    1.0000 </r>
       <r>   -0.8425    0.0000 </r>
       <r>    0.6226    0.0000 </r>
       <r>    1.4209    0.0000 </r>
       <r>    1.8174    0.0000 </r>
      </set>
      <set comment="kpoint 17">
       <r>  -21.9415    1.0000 </r>
       <r>  -17.6035    1.0000 </r>
       <r>  -14.7302    1.0000 </r>
       <r>  -10.0741    1.0000 </r>
       <r>   -9.4922    1.0000 </r>
       <r>   -6.3155    1.0000 </r>
       <r>   -6.0836    1.0000 </r>
       <r>   -5.3976    1.0000 </r>
       <r>   -0.4896    0.0000 </r>
       <r>    0.6930    0.0000 </r>
       <r>    1.4919    0.0000 </r>
       <r>    1.8894    0.0000 </r>
      </set>
      <set comment="kpoint 18">
       <r>  -21.8688    1.0000 </r>
       <r>  -17.9948    1.0000 </r>
       <r>  -14.2360    1.0000 </r>
       <r>   -9.9881    1.0000 </r>
       <r>   -9.4195    1.0000 </r>
[...]
       <r>   -8.9706    1.0000 </r>
       <r>   -5.6760    1.0000 </r>
       <r>   -5.6760    1.0000 </r>
       <r>   -0.5992    0.0000 </r>
       <r>   -0.5992    0.0000 </r>
       <r>    4.8030    0.0000 </r>
       <r>    4.8030    0.0000 </r>
      </set>
      <set comment="kpoint 209">
       <r>  -18.8373    1.0000 </r>
       <r>  -17.1690    1.0000 </r>
       <r>  -13.8221    1.0000 </r>
       <r>  -12.2906    1.0000 </r>
       <r>  -12.2793    1.0000 </r>
       <r>  -10.8413    1.0000 </r>
       <r>   -6.5119    1.0000 </r>
       <r>   -4.7296    1.0000 </r>
       <r>   -0.9977    0.0000 </r>
       <r>    1.0349    0.0000 </r>
       <r>    4.9927    0.0000 </r>
       <r>    5.7819    0.0000 </r>
      </set>
      <set comment="kpoint 210">
       <r>  -18.8275    1.0000 </r>
       <r>  -17.1616    1.0000 </r>
       <r>  -13.9159    1.0000 </r>
       <r>  -12.3684    1.0000 </r>
       <r>  -12.1882    1.0000 </r>
       <r>  -10.7535    1.0000 </r>
       <r>   -6.5031    1.0000 </r>
       <r>   -4.7314    1.0000 </r>
       <r>   -1.0092    0.0000 </r>
       <r>    1.0088    0.0000 </r>
       <r>    5.0064    0.0000 </r>
       <r>    5.7982    0.0000 </r>
      </set>
      <set comment="kpoint 211">
       <r>  -18.7983    1.0000 </r>
       <r>  -17.1399    1.0000 </r>
       <r>  -14.1438    1.0000 </r>
       <r>  -12.5887    1.0000 </r>
       <r>  -11.9344    1.0000 </r>
       <r>  -10.5381    1.0000 </r>
       <r>   -6.4767    1.0000 </r>
       <r>   -4.7376    1.0000 </r>
       <r>   -1.0417    0.0000 </r>
       <r>    0.9326    0.0000 </r>
       <r>    5.0476    0.0000 </r>
       <r>    5.8466    0.0000 </r>
      </set>
      <set comment="kpoint 212">
       <r>  -18.7497    1.0000 </r>
       <r>  -17.1052    1.0000 </r>
       <r>  -14.4287    1.0000 </r>
       <r>  -12.8711    1.0000 </r>
       <r>  -11.6065    1.0000 </r>
       <r>  -10.2661    1.0000 </r>
       <r>   -6.4332    1.0000 </r>
       <r>   -4.7496    1.0000 </r>
       <r>   -1.0899    0.0000 </r>
       <r>    0.8117    0.0000 </r>
       <r>    5.1160    0.0000 </r>
       <r>    5.9260    0.0000 </r>
      </set>
      <set comment="kpoint 213">
       <r>  -18.6818    1.0000 </r>
       <r>  -17.0602    1.0000 </r>
       <r>  -14.7274    1.0000 </r>
       <r>  -13.1775    1.0000 </r>
       <r>  -11.2472    1.0000 </r>
       <r>   -9.9790    1.0000 </r>
       <r>   -6.3729    1.0000 </r>
       <r>   -4.7697    1.0000 </r>
       <r>   -1.1456    0.0000 </r>
       <r>    0.6543    0.0000 </r>
       <r>    5.2107    0.0000 </r>
       <r>    6.0351    0.0000 </r>
      </set>
      <set comment="kpoint 214">
       <r>  -18.5951    1.0000 </r>
       <r>  -17.0100    1.0000 </r>
       <r>  -15.0167    1.0000 </r>
       <r>  -13.4899    1.0000 </r>
       <r>  -10.8783    1.0000 </r>
       <r>   -9.6996    1.0000 </r>
       <r>   -6.2968    1.0000 </r>
       <r>   -4.8010    1.0000 </r>
       <r>   -1.1992    0.0000 </r>
       <r>    0.4693    0.0000 </r>
       <r>    5.3287    0.0000 </r>
       <r>    6.1725    0.0000 </r>
      </set>
      <set comment="kpoint 215">
       <r>  -18.4899    1.0000 </r>
       <r>  -16.9639    1.0000 </r>
       <r>  -15.2785    1.0000 </r>
       <r>  -13.7991    1.0000 </r>
       <r>  -10.5130    1.0000 </r>
       <r>   -9.4430    1.0000 </r>
       <r>   -6.2059    1.0000 </r>
       <r>   -4.8463    1.0000 </r>
       <r>   -1.2411    0.0000 </r>
       <r>    0.2661    0.0000 </r>
       <r>    5.4452    0.0000 </r>
       <r>    5.7715    0.0000 </r>
      </set>
      <set comment="kpoint 216">
       <r>  -18.3668    1.0000 </r>
       <r>  -16.9377    1.0000 </r>
       <r>  -15.4920    1.0000 </r>
       <r>  -14.0996    1.0000 </r>
       <r>  -10.1620    1.0000 </r>
       <r>   -9.2215    1.0000 </r>
       <r>   -6.1015    1.0000 </r>
       <r>   -4.9082    1.0000 </r>
       <r>   -1.2623    0.0000 </r>
       <r>    0.0531    0.0000 </r>
       <r>    5.2932    0.0000 </r>
       <r>    5.7187    0.0000 </r>
      </set>
      <set comment="kpoint 217">
       <r>  -18.2265    1.0000 </r>
       <r>  -16.9547    1.0000 </r>
       <r>  -15.6314    1.0000 </r>
       <r>  -14.3874    1.0000 </r>
       <r>   -9.8346    1.0000 </r>
       <r>   -9.0456    1.0000 </r>
       <r>   -5.9853    1.0000 </r>
       <r>   -4.9878    1.0000 </r>
       <r>   -1.2562    0.0000 </r>
       <r>   -0.1618    0.0000 </r>
       <r>    5.0041    0.0000 </r>
       <r>    5.8205    0.0000 </r>
      </set>
      <set comment="kpoint 218">
       <r>  -18.0702    1.0000 </r>
       <r>  -17.0333    1.0000 </r>
       <r>  -15.6763    1.0000 </r>
       <r>  -14.6595    1.0000 </r>
       <r>   -9.5406    1.0000 </r>
       <r>   -8.9247    1.0000 </r>
       <r>   -5.8597    1.0000 </r>
       <r>   -5.0847    1.0000 </r>
       <r>   -1.2185    0.0000 </r>
       <r>   -0.3715    0.0000 </r>
       <r>    4.7841    0.0000 </r>
       <r>    5.4205    0.0000 </r>
      </set>
      <set comment="kpoint 219">
       <r>  -17.8998    1.0000 </r>
       <r>  -17.1698    1.0000 </r>
       <r>  -15.6297    1.0000 </r>
       <r>  -14.9126    1.0000 </r>
       <r>   -9.2892    1.0000 </r>
       <r>   -8.8660    1.0000 </r>
       <r>   -5.7271    1.0000 </r>
       <r>   -5.1971    1.0000 </r>
       <r>   -1.1476    0.0000 </r>
       <r>   -0.5699    0.0000 </r>
       <r>    4.6537    0.0000 </r>
       <r>    5.0911    0.0000 </r>
      </set>
      <set comment="kpoint 220">
       <r>  -17.7181    1.0000 </r>
       <r>  -17.3422    1.0000 </r>
       <r>  -15.5125    1.0000 </r>
       <r>  -15.1431    1.0000 </r>
       <r>   -9.0895    1.0000 </r>
       <r>   -8.8738    1.0000 </r>
       <r>   -5.5907    1.0000 </r>
       <r>   -5.3216    1.0000 </r>
       <r>   -1.0443    0.0000 </r>
       <r>   -0.7515    0.0000 </r>
       <r>    4.6196    0.0000 </r>
       <r>    4.8425    0.0000 </r>
      </set>
      <set comment="kpoint 221">
       <r>  -17.5296    1.0000 </r>
       <r>  -17.5296    1.0000 </r>
       <r>  -15.3458    1.0000 </r>
       <r>  -15.3458    1.0000 </r>
       <r>   -8.9491    1.0000 </r>
       <r>   -8.9491    1.0000 </r>
       <r>   -5.4542    1.0000 </r>
       <r>   -5.4542    1.0000 </r>
       <r>   -0.9111    0.0000 </r>
       <r>   -0.9111    0.0000 </r>
       <r>    4.6833    0.0000 </r>
       <r>    4.6833    0.0000 </r>
      </set>
      <set comment="kpoint 222">
       <r>  -18.4419    1.0000 </r>
       <r>  -17.6040    1.0000 </r>
       <r>  -13.4648    1.0000 </r>
       <r>  -12.6926    1.0000 </r>
       <r>  -11.9630    1.0000 </r>
       <r>  -11.2339    1.0000 </r>
       <r>   -6.0795    1.0000 </r>
       <r>   -5.1837    1.0000 </r>
       <r>   -0.5210    0.0000 </r>
       <r>    0.4972    0.0000 </r>
       <r>    5.5556    0.0000 </r>
       <r>    6.3146    0.0000 </r>
      </set>
      <set comment="kpoint 223">
       <r>  -18.4324    1.0000 </r>
       <r>  -17.5954    1.0000 </r>
       <r>  -13.5595    1.0000 </r>
       <r>  -12.7844    1.0000 </r>
       <r>  -11.8625    1.0000 </r>
       <r>  -11.1410    1.0000 </r>
       <r>   -6.0720    1.0000 </r>
       <r>   -5.1810    1.0000 </r>
       <r>   -0.5384    0.0000 </r>
       <r>    0.4731    0.0000 </r>
       <r>    5.5692    0.0000 </r>
       <r>    6.3317    0.0000 </r>
      </set>
      <set comment="kpoint 224">
       <r>  -18.4038    1.0000 </r>
       <r>  -17.5699    1.0000 </r>
       <r>  -13.7901    1.0000 </r>
       <r>  -13.0098    1.0000 </r>
       <r>  -11.6147    1.0000 </r>
       <r>  -10.9128    1.0000 </r>
       <r>   -6.0495    1.0000 </r>
       <r>   -5.1730    1.0000 </r>
       <r>   -0.5888    0.0000 </r>
       <r>    0.4028    0.0000 </r>
       <r>    5.6102    0.0000 </r>
       <r>    6.3824    0.0000 </r>
      </set>
      <set comment="kpoint 225">
       <r>  -18.3564    1.0000 </r>
       <r>  -17.5280    1.0000 </r>
       <r>  -14.0804    1.0000 </r>
       <r>  -13.2970    1.0000 </r>
       <r>  -11.2966    1.0000 </r>
       <r>  -10.6232    1.0000 </r>
       <r>   -6.0126    1.0000 </r>
       <r>   -5.1609    1.0000 </r>
       <r>   -0.6666    0.0000 </r>
       <r>    0.2917    0.0000 </r>
       <r>    5.6780    0.0000 </r>
       <r>    6.4652    0.0000 </r>
      </set>
      <set comment="kpoint 226">
       <r>  -18.2904    1.0000 </r>
       <r>  -17.4708    1.0000 </r>
       <r>  -14.3894    1.0000 </r>
       <r>  -13.6069    1.0000 </r>
       <r>  -10.9512    1.0000 </r>
       <r>  -10.3140    1.0000 </r>
       <r>   -5.9620    1.0000 </r>
       <r>   -5.1466    1.0000 </r>
       <r>   -0.7638    0.0000 </r>
       <r>    0.1478    0.0000 </r>
       <r>    5.7712    0.0000 </r>
       <r>    6.5783    0.0000 </r>
      </set>
      <set comment="kpoint 227">
       <r>  -18.2063    1.0000 </r>
       <r>  -17.4003    1.0000 </r>
       <r>  -14.6971    1.0000 </r>
       <r>  -13.9212    1.0000 </r>
       <r>  -10.6001    1.0000 </r>
       <r>  -10.0078    1.0000 </r>
       <r>   -5.8990    1.0000 </r>
       <r>   -5.1327    1.0000 </r>
       <r>   -0.8705    0.0000 </r>
       <r>   -0.0198    0.0000 </r>
       <r>    5.8818    0.0000 </r>
       <r>    6.4509    0.0000 </r>
      </set>
      <set comment="kpoint 228">
       <r>  -18.1048    1.0000 </r>
       <r>  -17.3197    1.0000 </r>
       <r>  -14.9914    1.0000 </r>
       <r>  -14.2304    1.0000 </r>
       <r>  -10.2572    1.0000 </r>
       <r>   -9.7192    1.0000 </r>
       <r>   -5.8251    1.0000 </r>
       <r>   -5.1222    1.0000 </r>
       <r>   -0.9764    0.0000 </r>
       <r>   -0.2014    0.0000 </r>
       <r>    5.8667    0.0000 </r>
       <r>    6.1378    0.0000 </r>
      </set>
      <set comment="kpoint 229">
       <r>  -17.9869    1.0000 </r>
       <r>  -17.2349    1.0000 </r>
       <r>  -15.2619    1.0000 </r>
       <r>  -14.5288    1.0000 </r>
       <r>   -9.9333    1.0000 </r>
       <r>   -9.4601    1.0000 </r>
       <r>   -5.7424    1.0000 </r>
       <r>   -5.1187    1.0000 </r>
       <r>   -1.0712    0.0000 </r>
       <r>   -0.3879    0.0000 </r>
       <r>    5.4984    0.0000 </r>
       <r>    5.9886    0.0000 </r>
      </set>
      <set comment="kpoint 230">
       <r>  -17.8541    1.0000 </r>
       <r>  -17.1561    1.0000 </r>
       <r>  -15.4955    1.0000 </r>
       <r>  -14.8118    1.0000 </r>
       <r>   -9.6384    1.0000 </r>
       <r>   -9.2412    1.0000 </r>
       <r>   -5.6534    1.0000 </r>
       <r>   -5.1259    1.0000 </r>
       <r>   -1.1455    0.0000 </r>
       <r>   -0.5707    0.0000 </r>
       <r>    5.1518    0.0000 </r>
       <r>    5.5612    0.0000 </r>
      </set>
      <set comment="kpoint 231">
       <r>  -17.7091    1.0000 </r>
       <r>  -17.1010    1.0000 </r>
       <r>  -15.6727    1.0000 </r>
       <r>  -15.0749    1.0000 </r>
       <r>   -9.3824    1.0000 </r>
       <r>   -9.0722    1.0000 </r>
       <r>   -5.5612    1.0000 </r>
       <r>   -5.1467    1.0000 </r>
       <r>   -1.1915    0.0000 </r>
       <r>   -0.7418    0.0000 </r>
       <r>    4.8795    0.0000 </r>
       <r>    5.1993    0.0000 </r>
      </set>
      <set comment="kpoint 232">
       <r>  -17.5560    1.0000 </r>
       <r>  -17.0932    1.0000 </r>
       <r>  -15.7688    1.0000 </r>
       <r>  -15.3127    1.0000 </r>
       <r>   -9.1747    1.0000 </r>
       <r>   -8.9614    1.0000 </r>
       <r>   -5.4694    1.0000 </r>
       <r>   -5.1832    1.0000 </r>
       <r>   -1.2036    0.0000 </r>
       <r>   -0.8941    0.0000 </r>
       <r>    4.6942    0.0000 </r>
       <r>    4.9143    0.0000 </r>
      </set>
      <set comment="kpoint 233">
       <r>  -17.4019    1.0000 </r>
       <r>  -17.1488    1.0000 </r>
       <r>  -15.7671    1.0000 </r>
       <r>  -15.5173    1.0000 </r>
       <r>   -9.0236    1.0000 </r>
       <r>   -8.9149    1.0000 </r>
       <r>   -5.3819    1.0000 </r>
       <r>   -5.2357    1.0000 </r>
       <r>   -1.1791    0.0000 </r>
       <r>   -1.0212    0.0000 </r>
       <r>    4.6034    0.0000 </r>
       <r>    4.7156    0.0000 </r>
      </set>
      <set comment="kpoint 234">
       <r>  -17.2594    1.0000 </r>
       <r>  -17.2594    1.0000 </r>
       <r>  -15.6755    1.0000 </r>
       <r>  -15.6755    1.0000 </r>
       <r>   -8.9358    1.0000 </r>
       <r>   -8.9358    1.0000 </r>
       <r>   -5.3028    1.0000 </r>
       <r>   -5.3028    1.0000 </r>
       <r>   -1.1175    0.0000 </r>
       <r>   -1.1175    0.0000 </r>
       <r>    4.6106    0.0000 </r>
       <r>    4.6106    0.0000 </r>
      </set>
      <set comment="kpoint 235">
       <r>  -18.0298    1.0000 </r>
       <r>  -18.0298    1.0000 </r>
       <r>  -13.0881    1.0000 </r>
       <r>  -13.0881    1.0000 </r>
       <r>  -11.6091    1.0000 </r>
       <r>  -11.6091    1.0000 </r>
       <r>   -5.6354    1.0000 </r>
       <r>   -5.6354    1.0000 </r>
       <r>   -0.0221    0.0000 </r>
       <r>   -0.0221    0.0000 </r>
       <r>    6.1467    0.0000 </r>
       <r>    6.1467    0.0000 </r>
      </set>
      <set comment="kpoint 236">
       <r>  -18.0206    1.0000 </r>
       <r>  -18.0206    1.0000 </r>
       <r>  -13.1819    1.0000 </r>
       <r>  -13.1819    1.0000 </r>
       <r>  -11.5119    1.0000 </r>
       <r>  -11.5119    1.0000 </r>
       <r>   -5.6297    1.0000 </r>
       <r>   -5.6297    1.0000 </r>
       <r>   -0.0435    0.0000 </r>
       <r>   -0.0435    0.0000 </r>
       <r>    6.1603    0.0000 </r>
       <r>    6.1603    0.0000 </r>
      </set>
      <set comment="kpoint 237">
       <r>  -17.9932    1.0000 </r>
       <r>  -17.9932    1.0000 </r>
       <r>  -13.4110    1.0000 </r>
       <r>  -13.4110    1.0000 </r>
       <r>  -11.2728    1.0000 </r>
       <r>  -11.2728    1.0000 </r>
       <r>   -5.6130    1.0000 </r>
       <r>   -5.6130    1.0000 </r>
       <r>   -0.1056    0.0000 </r>
       <r>   -0.1056    0.0000 </r>
       <r>    6.2009    0.0000 </r>
       <r>    6.2009    0.0000 </r>
      </set>
      <set comment="kpoint 238">
       <r>  -17.9477    1.0000 </r>
       <r>  -17.9477    1.0000 </r>
       <r>  -13.7012    1.0000 </r>
       <r>  -13.7012    1.0000 </r>
       <r>  -10.9677    1.0000 </r>
       <r>  -10.9677    1.0000 </r>
       <r>   -5.5859    1.0000 </r>
       <r>   -5.5859    1.0000 </r>
       <r>   -0.2031    0.0000 </r>
       <r>   -0.2031    0.0000 </r>
       <r>    6.2679    0.0000 </r>
       <r>    6.2679    0.0000 </r>
      </set>
      <set comment="kpoint 239">
       <r>  -17.8848    1.0000 </r>
       <r>  -17.8848    1.0000 </r>
       <r>  -14.0125    1.0000 </r>
       <r>  -14.0125    1.0000 </r>
       <r>  -10.6391    1.0000 </r>
       <r>  -10.6391    1.0000 </r>
       <r>   -5.5497    1.0000 </r>
       <r>   -5.5497    1.0000 </r>
       <r>   -0.3280    0.0000 </r>
       <r>   -0.3280    0.0000 </r>
       <r>    6.3582    0.0000 </r>
       <r>    6.3582    0.0000 </r>
      </set>
      <set comment="kpoint 240">
       <r>  -17.8053    1.0000 </r>
       <r>  -17.8053    1.0000 </r>
       <r>  -14.3261    1.0000 </r>
       <r>  -14.3261    1.0000 </r>
       <r>  -10.3089    1.0000 </r>
       <r>  -10.3089    1.0000 </r>
       <r>   -5.5061    1.0000 </r>
       <r>   -5.5061    1.0000 </r>
       <r>   -0.4708    0.0000 </r>
       <r>   -0.4708    0.0000 </r>
       <r>    6.4432    0.0000 </r>
       <r>    6.4432    0.0000 </r>
      </set>
      <set comment="kpoint 241">
       <r>  -17.7105    1.0000 </r>
       <r>  -17.7105    1.0000 </r>
       <r>  -14.6319    1.0000 </r>
       <r>  -14.6319    1.0000 </r>
       <r>   -9.9916    1.0000 </r>
       <r>   -9.9916    1.0000 </r>
       <r>   -5.4575    1.0000 </r>
       <r>   -5.4575    1.0000 </r>
       <r>   -0.6215    0.0000 </r>
       <r>   -0.6215    0.0000 </r>
       <r>    6.1684    0.0000 </r>
       <r>    6.1684    0.0000 </r>
      </set>
      <set comment="kpoint 242">
       <r>  -17.6028    1.0000 </r>
       <r>  -17.6028    1.0000 </r>
       <r>  -14.9230    1.0000 </r>
       <r>  -14.9230    1.0000 </r>
       <r>   -9.6983    1.0000 </r>
       <r>   -9.6983    1.0000 </r>
       <r>   -5.4069    1.0000 </r>
       <r>   -5.4069    1.0000 </r>
       <r>   -0.7702    0.0000 </r>
       <r>   -0.7702    0.0000 </r>
       <r>    5.7281    0.0000 </r>
       <r>    5.7281    0.0000 </r>
      </set>
      <set comment="kpoint 243">
       <r>  -17.4858    1.0000 </r>
       <r>  -17.4858    1.0000 </r>
       <r>  -15.1926    1.0000 </r>
       <r>  -15.1926    1.0000 </r>
       <r>   -9.4397    1.0000 </r>
       <r>   -9.4397    1.0000 </r>
       <r>   -5.3578    1.0000 </r>
       <r>   -5.3578    1.0000 </r>
       <r>   -0.9075    0.0000 </r>
       <r>   -0.9075    0.0000 </r>
       <r>    5.3377    0.0000 </r>
       <r>    5.3377    0.0000 </r>
      </set>
      <set comment="kpoint 244">
       <r>  -17.3660    1.0000 </r>
       <r>  -17.3660    1.0000 </r>
       <r>  -15.4327    1.0000 </r>
       <r>  -15.4327    1.0000 </r>
       <r>   -9.2255    1.0000 </r>
       <r>   -9.2255    1.0000 </r>
       <r>   -5.3138    1.0000 </r>
       <r>   -5.3138    1.0000 </r>
       <r>   -1.0248    0.0000 </r>
       <r>   -1.0248    0.0000 </r>
       <r>    5.0183    0.0000 </r>
       <r>    5.0183    0.0000 </r>
      </set>
      <set comment="kpoint 245">
       <r>  -17.2549    1.0000 </r>
       <r>  -17.2549    1.0000 </r>
       <r>  -15.6304    1.0000 </r>
       <r>  -15.6304    1.0000 </r>
       <r>   -9.0648    1.0000 </r>
       <r>   -9.0648    1.0000 </r>
       <r>   -5.2788    1.0000 </r>
       <r>   -5.2788    1.0000 </r>
       <r>   -1.1146    0.0000 </r>
       <r>   -1.1146    0.0000 </r>
       <r>    4.7814    0.0000 </r>
       <r>    4.7814    0.0000 </r>
      </set>
      <set comment="kpoint 246">
       <r>  -17.1714    1.0000 </r>
       <r>  -17.1714    1.0000 </r>
       <r>  -15.7661    1.0000 </r>
       <r>  -15.7661    1.0000 </r>
       <r>   -8.9650    1.0000 </r>
       <r>   -8.9650    1.0000 </r>
       <r>   -5.2563    1.0000 </r>
       <r>   -5.2563    1.0000 </r>
       <r>   -1.1711    0.0000 </r>
       <r>   -1.1711    0.0000 </r>
       <r>    4.6355    0.0000 </r>
       <r>    4.6355    0.0000 </r>
      </set>
      <set comment="kpoint 247">
       <r>  -17.1394    1.0000 </r>
       <r>  -17.1394    1.0000 </r>
       <r>  -15.8155    1.0000 </r>
       <r>  -15.8155    1.0000 </r>
       <r>   -8.9312    1.0000 </r>
       <r>   -8.9312    1.0000 </r>
       <r>   -5.2485    1.0000 </r>
       <r>   -5.2485    1.0000 </r>
       <r>   -1.1903    0.0000 </r>
       <r>   -1.1903    0.0000 </r>
       <r>    4.5863    0.0000 </r>
       <r>    4.5863    0.0000 </r>
      </set>
     </set>
    </set>
   </array>
  </eigenvalues>
  <separator name="orbital magnetization" >
   <v name="MAGDIPOLOUT">      0.00000000      0.00000000      0.00000000</v>
  </separator>
 </calculation>
 <structure name="finalpos" >
  <crystal>
   <varray name="basis" >
    <v>       4.25190054       0.00000000       0.00000000 </v>
    <v>       0.00000000       2.54119857       0.00000000 </v>
    <v>       0.00000000       0.00000000      19.51313214 </v>
   </varray>
   <i name="volume">    210.83790140 </i>
   <varray name="rec_basis" >
    <v>       0.23518894       0.00000000       0.00000000 </v>
    <v>       0.00000000       0.39351510       0.00000000 </v>
    <v>       0.00000000       0.00000000       0.05124754 </v>
   </varray>
  </crystal>
  <varray name="positions" >
   <v>       0.00074552      -0.00000000      -0.00000000 </v>
   <v>       0.16592114       0.50000000       0.00000000 </v>
   <v>       0.50074552       0.50000000      -0.00000000 </v>
   <v>       0.66592114      -0.00000000       0.00000000 </v>
  </varray>
 </structure>
</modeling>
