gr                                      
           1
     4.251901    0.000000    0.000000
     0.000000    2.541199    0.000000
     0.000000    0.000000   19.513132
   C 
   4
Direct configuration=     1
   0.00074775  0.00000000  0.00000000
   0.16591892  0.50000000  0.00000000
   0.50074775  0.50000000  0.00000000
   0.66591892  0.00000000  0.00000000
Direct configuration=     2
   0.00073672  0.00000000  0.00000000
   0.16592995  0.50000000  0.00000000
   0.50073672  0.50000000  0.00000000
   0.66592995  0.00000000  0.00000000
Direct configuration=     3
   0.00074552  0.00000000 -0.00000000
   0.16592115  0.50000000  0.00000000
   0.50074552  0.50000000 -0.00000000
   0.66592115  0.00000000  0.00000000
Direct configuration=     4
   0.00074553 -0.00000000 -0.00000000
   0.16592114  0.50000000  0.00000000
   0.50074553  0.50000000 -0.00000000
   0.66592114 -0.00000000  0.00000000
Direct configuration=     5
   0.00074552 -0.00000000 -0.00000000
   0.16592114  0.50000000  0.00000000
   0.50074552  0.50000000 -0.00000000
   0.66592114 -0.00000000  0.00000000
