    4    4  400    1
  0.5270948E+02  0.4269427E-09  0.2479513E-09  0.1991649E-08  0.5000000E-15
  1.000000000000000E-004
  CAR 
 gr                                      
     16    247     12
 
  0.0000000E+00  0.0000000E+00  0.0000000E+00  0.1157407E-02
    1      -22.219133
    2      -16.956503
    3      -15.950658
    4      -10.332281
    5       -9.226211
    6       -5.831234
    7       -5.774241
    8       -5.068619
    9       -1.086859
   10        0.527984
   11        1.328602
   12        1.712572
 
  0.4166667E-01  0.0000000E+00  0.0000000E+00  0.2314815E-02
    1      -22.208858
    2      -17.127211
    3      -15.764733
    4      -10.320021
    5       -9.215977
    6       -5.854044
    7       -5.816483
    8       -5.135834
    9       -1.003885
   10        0.541919
   11        1.342711
   12        1.726853
 
  0.8333333E-01  0.0000000E+00  0.0000000E+00  0.2314815E-02
    1      -22.178036
    2      -17.470214
    3      -15.376162
    4      -10.283262
    5       -9.185326
    6       -5.941510
    7       -5.921198
    8       -5.322095
    9       -0.770517
   10        0.583726
   11        1.385035
   12        1.769697
 
  0.1250000E+00  0.0000000E+00  0.0000000E+00  0.2314815E-02
    1      -22.126689
    2      -17.850138
    3      -14.920586
    4      -10.222059
    5       -9.134411
    6       -6.144509
    7       -6.029094
    8       -5.593362
    9       -0.421317
   10        0.653407
   11        1.455562
   12        1.841134
 
  0.1666667E+00  0.0000000E+00  0.0000000E+00  0.2314815E-02
    1      -22.054850
    2      -18.231510
    3      -14.433925
    4      -10.136512
    5       -9.063492
    6       -6.418282
    7       -6.172377
    8       -5.916160
    9        0.009367
   10        0.750964
   11        1.554270
   12        1.941079
 
  0.2083333E+00  0.0000000E+00  0.0000000E+00  0.2314815E-02
    1      -21.962567
    2      -18.603604
    3      -13.927556
    4      -10.026759
    5       -8.972948
    6       -6.754190
    7       -6.344667
    8       -6.265775
    9        0.495564
   10        0.876392
   11        1.681126
   12        2.069617
 
  0.2500000E+00  0.0000000E+00  0.0000000E+00  0.2314815E-02
    1      -21.849904
    2      -18.962121
    3      -13.406633
    4       -9.892991
    5       -8.863282
    6       -7.143057
    7       -6.625840
    8       -6.539254
    9        1.019243
   10        1.029677
   11        1.836081
   12        2.226718
 
  0.2916667E+00  0.0000000E+00  0.0000000E+00  0.2314815E-02
    1      -21.716942
    2      -19.304930
    3      -12.874380
    4       -9.735451
    5       -8.735145
    6       -7.575855
    7       -6.985778
    8       -6.749626
    9        1.210791
   10        1.567682
   11        2.019061
   12        2.412381
 
  0.3333333E+00  0.0000000E+00  0.0000000E+00  0.2314815E-02
    1      -21.563776
    2      -19.630797
    3      -12.333391
    4       -9.554449
    5       -8.589352
    6       -8.044162
    7       -7.338669
    8       -6.969804
    9        1.419698
   10        2.131121
   11        2.229947
   12        2.626599
 
  0.3750000E+00  0.0000000E+00  0.0000000E+00  0.2314815E-02
    1      -21.390523
    2      -19.938917
    3      -11.786133
    4       -9.350373
    5       -8.540385
    6       -8.426913
    7       -7.679860
    8       -7.194501
    9        1.656341
   10        2.468532
   11        2.700568
   12        2.869361
 
  0.4166667E+00  0.0000000E+00  0.0000000E+00  0.2314815E-02
    1      -21.197316
    2      -20.228717
    3      -11.235189
    4       -9.123709
    5       -9.057840
    6       -8.249068
    7       -8.006121
    8       -7.419159
    9        1.920647
   10        2.734400
   11        3.140706
   12        3.251449
 
  0.4583333E+00  0.0000000E+00  0.0000000E+00  0.2314815E-02
    1      -20.984319
    2      -20.499766
    3      -10.683404
    4       -9.590718
    5       -8.875066
    6       -8.315139
    7       -8.057329
    8       -7.639915
    9        2.212513
   10        2.878238
   11        3.026456
   12        3.440508
 
  0.5000000E+00  0.0000000E+00  0.0000000E+00  0.1157407E-02
    1      -20.751726
    2      -20.751726
    3      -10.134009
    4      -10.134009
    5       -8.605214
    6       -8.605214
    7       -7.853535
    8       -7.853535
    9        2.531789
   10        2.531789
   11        3.340221
   12        3.340222
 
  0.0000000E+00  0.2777778E-01  0.0000000E+00  0.2314815E-02
    1      -22.205601
    2      -16.944880
    3      -15.939304
    4      -10.316137
    5       -9.287101
    6       -5.887344
    7       -5.804871
    8       -5.052169
    9       -1.091260
   10        0.546328
   11        1.347191
   12        1.731392
 
  0.4166667E-01  0.2777778E-01  0.0000000E+00  0.4629630E-02
    1      -22.195327
    2      -17.115427
    3      -15.753594
    4      -10.303882
    5       -9.276848
    6       -5.918218
    7       -5.838361
    8       -5.119535
    9       -1.008255
   10        0.560263
   11        1.361300
   12        1.745669
 
  0.8333333E-01  0.2777778E-01  0.0000000E+00  0.4629630E-02
    1      -22.164510
    2      -17.458181
    3      -15.365434
    4      -10.267135
    5       -9.246138
    6       -6.020089
    7       -5.926734
    8       -5.306143
    9       -0.774906
   10        0.602072
   11        1.403621
   12        1.788514
 
  0.1250000E+00  0.2777778E-01  0.0000000E+00  0.4629630E-02
    1      -22.113170
    2      -17.837882
    3      -14.910355
    4      -10.205954
    5       -9.195120
    6       -6.205775
    7       -6.049082
    8       -5.577761
    9       -0.425963
   10        0.671758
   11        1.474143
   12        1.859923
 
  0.1666667E+00  0.2777778E-01  0.0000000E+00  0.4629630E-02
    1      -22.041341
    2      -18.219063
    3      -14.424285
    4      -10.120436
    5       -9.124047
    6       -6.467827
    7       -6.200699
    8       -5.900817
    9        0.004122
   10        0.769321
   11        1.572845
   12        1.959898
 
  0.2083333E+00  0.2777778E-01  0.0000000E+00  0.4629630E-02
    1      -21.949073
    2      -18.590992
    3      -13.918617
    4      -10.010722
    5       -9.033288
    6       -6.794241
    7       -6.378944
    8       -6.250580
    9        0.489364
   10        0.894758
   11        1.699694
   12        2.088438
 
  0.2500000E+00  0.2777778E-01  0.0000000E+00  0.4629630E-02
    1      -21.836427
    2      -18.949369
    3      -13.398530
    4       -9.877000
    5       -8.923334
    6       -7.174859
    7       -6.610701
    8       -6.578364
    9        1.011758
   10        1.048053
   11        1.854641
   12        2.245542
 
  0.2916667E+00  0.2777778E-01  0.0000000E+00  0.4629630E-02
    1      -21.703487
    2      -19.292057
    3      -12.867276
    4       -9.719516
    5       -8.794817
    6       -7.600457
    7       -6.970632
    8       -6.792812
    9        1.229181
   10        1.558625
   11        2.037611
   12        2.431207
 
  0.3333333E+00  0.2777778E-01  0.0000000E+00  0.4629630E-02
    1      -21.550348
    2      -19.617820
    3      -12.327487
    4       -9.538578
    5       -8.648530
    6       -8.062557
    7       -7.323475
    8       -7.016435
    9        1.438101
   10        2.120284
   11        2.248490
   12        2.645429
 
  0.3750000E+00  0.2777778E-01  0.0000000E+00  0.4629630E-02
    1      -21.377125
    2      -19.925850
    3      -11.781672
    4       -9.334574
    5       -8.553505
    6       -8.485458
    7       -7.664592
    8       -7.244016
    9        1.674760
   10        2.487074
   11        2.687986
   12        2.888197
 
  0.4166667E+00  0.2777778E-01  0.0000000E+00  0.4629630E-02
    1      -21.183955
    2      -20.215573
    3      -11.232467
    4       -9.107989
    5       -9.066527
    6       -8.306807
    7       -7.990766
    8       -7.471062
    9        1.939085
   10        2.752952
   11        3.160065
   12        3.269923
 
  0.4583333E+00  0.2777778E-01  0.0000000E+00  0.4629630E-02
    1      -20.971000
    2      -20.486554
    3      -10.682785
    4       -9.595707
    5       -8.859433
    6       -8.299691
    7       -8.114051
    8       -7.693775
    9        2.230974
   10        2.896794
   11        3.045040
   12        3.460090
 
  0.5000000E+00  0.2777778E-01  0.0000000E+00  0.2314815E-02
    1      -20.738456
    2      -20.738456
    3      -10.135930
    4      -10.135930
    5       -8.589672
    6       -8.589672
    7       -7.908981
    8       -7.908981
    9        2.550285
   10        2.550285
   11        3.358792
   12        3.358849
 
  0.0000000E+00  0.5555556E-01  0.0000000E+00  0.2314815E-02
    1      -22.165016
    2      -16.910016
    3      -15.905407
    4      -10.267738
    5       -9.464875
    6       -6.051233
    7       -5.895965
    8       -5.002839
    9       -1.105288
   10        0.601364
   11        1.402954
   12        1.787838
 
  0.4166667E-01  0.5555556E-01  0.0000000E+00  0.4629630E-02
    1      -22.154746
    2      -17.080092
    3      -15.720330
    4      -10.255496
    5       -9.454559
    6       -6.089105
    7       -5.920450
    8       -5.070674
    9       -1.022185
   10        0.615302
   11        1.417060
   12        1.802120
 
  0.8333333E-01  0.5555556E-01  0.0000000E+00  0.4629630E-02
    1      -22.123942
    2      -17.422106
    3      -15.333408
    4      -10.218788
    5       -9.423654
    6       -6.200086
    7       -5.994039
    8       -5.258347
    9       -0.788883
   10        0.657115
   11        1.459372
   12        1.844966
 
  0.1250000E+00  0.5555556E-01  0.0000000E+00  0.4629630E-02
    1      -22.072624
    2      -17.801139
    3      -14.879847
    4      -10.157672
    5       -9.372297
    6       -6.379215
    7       -6.114511
    8       -5.531045
    9       -0.440718
   10        0.726810
   11        1.529880
   12        1.916377
 
  0.1666667E+00  0.5555556E-01  0.0000000E+00  0.4629630E-02
    1      -22.000828
    2      -18.181745
    3      -14.395585
    4      -10.072245
    5       -9.300721
    6       -6.622047
    7       -6.275319
    8       -5.854886
    9       -0.012458
   10        0.824389
   11        1.628563
   12        2.016355
 
  0.2083333E+00  0.5555556E-01  0.0000000E+00  0.4629630E-02
    1      -21.908601
    2      -18.553181
    3      -13.892074
    4       -9.962647
    5       -9.209259
    6       -6.924098
    7       -6.467401
    8       -6.205093
    9        0.469870
   10        0.949847
   11        1.755387
   12        2.144899
 
  0.2500000E+00  0.5555556E-01  0.0000000E+00  0.4629630E-02
    1      -21.796009
    2      -18.911133
    3      -13.374569
    4       -9.829069
    5       -9.098358
    6       -7.279760
    7       -6.681574
    8       -6.565383
    9        0.988338
   10        1.103168
   11        1.910306
   12        2.302010
 
  0.2916667E+00  0.5555556E-01  0.0000000E+00  0.4629630E-02
    1      -21.663135
    2      -19.253456
    3      -12.846417
    4       -9.671753
    5       -8.968593
    6       -7.682199
    7       -6.925289
    8       -6.909810
    9        1.284327
   10        1.530404
   11        2.093249
   12        2.487684
 
  0.3333333E+00  0.5555556E-01  0.0000000E+00  0.4629630E-02
    1      -21.510074
    2      -19.578905
    3      -12.310364
    4       -9.491010
    5       -8.820682
    6       -8.123941
    7       -7.277981
    8       -7.145480
    9        1.493283
   10        2.086599
   11        2.304104
   12        2.701916
 
  0.3750000E+00  0.5555556E-01  0.0000000E+00  0.4629630E-02
    1      -21.336944
    2      -19.886664
    3      -11.769070
    4       -9.287225
    5       -8.655518
    6       -8.597548
    7       -7.618870
    8       -7.383194
    9        1.729982
   10        2.542681
   11        2.648654
   12        2.944698
 
  0.4166667E+00  0.5555556E-01  0.0000000E+00  0.4629630E-02
    1      -21.143882
    2      -20.176153
    3      -11.225347
    4       -9.096068
    5       -9.060883
    6       -8.474190
    7       -7.944775
    8       -7.618571
    9        1.994352
   10        2.808589
   11        3.206429
   12        3.216022
 
  0.4583333E+00  0.5555556E-01  0.0000000E+00  0.4629630E-02
    1      -20.931055
    2      -20.446933
    3      -10.682330
    4       -9.613246
    5       -8.812589
    6       -8.278027
    7       -8.253414
    8       -7.848032
    9        2.286299
   10        2.952338
   11        3.100777
   12        3.516404
 
  0.5000000E+00  0.5555556E-01  0.0000000E+00  0.2314815E-02
    1      -20.698662
    2      -20.698662
    3      -10.143590
    4      -10.143590
    5       -8.543107
    6       -8.543107
    7       -8.068651
    8       -8.068651
    9        2.605692
   10        2.605692
   11        3.414487
   12        3.414487
 
  0.0000000E+00  0.8333333E-01  0.0000000E+00  0.2314815E-02
    1      -22.097413
    2      -16.851922
    3      -15.849483
    4      -10.187185
    5       -9.746188
    6       -6.310909
    7       -6.045198
    8       -4.920689
    9       -1.131412
   10        0.693109
   11        1.495869
   12        1.881925
 
  0.4166667E-01  0.8333333E-01  0.0000000E+00  0.4629630E-02
    1      -22.087151
    2      -17.021255
    3      -15.665440
    4      -10.174965
    5       -9.735747
    6       -6.352837
    7       -6.062440
    8       -4.989355
    9       -1.048115
   10        0.707046
   11        1.509969
   12        1.896207
 
  0.8333333E-01  0.8333333E-01  0.0000000E+00  0.4629630E-02
    1      -22.056368
    2      -17.362062
    3      -15.280602
    4      -10.138324
    5       -9.704460
    6       -6.470393
    7       -6.120412
    8       -5.178901
    9       -0.814852
   10        0.748862
   11        1.552266
   12        1.939054
 
  0.1250000E+00  0.8333333E-01  0.0000000E+00  0.4629630E-02
    1      -22.005088
    2      -17.739986
    3      -14.829653
    4      -10.077319
    5       -9.652439
    6       -6.649569
    7       -6.227301
    8       -5.453480
    9       -0.468001
   10        0.818563
   11        1.622747
   12        2.010468
 
  0.1666667E+00  0.8333333E-01  0.0000000E+00  0.4629630E-02
    1      -21.933346
    2      -18.119629
    3      -14.348545
    4       -9.992047
    5       -9.579870
    6       -6.880560
    7       -6.383700
    8       -5.778670
    9       -0.042875
   10        0.916154
   11        1.721393
   12        2.110447
 
  0.2083333E+00  0.8333333E-01  0.0000000E+00  0.4629630E-02
    1      -21.841190
    2      -18.490235
    3      -13.848830
    4       -9.882650
    5       -9.487023
    6       -7.158110
    7       -6.583049
    8       -6.129630
    9        0.434435
   10        1.041632
   11        1.848172
   12        2.238997
 
  0.2500000E+00  0.8333333E-01  0.0000000E+00  0.4629630E-02
    1      -21.728688
    2      -18.847474
    3      -13.335908
    4       -9.749317
    5       -9.374251
    6       -7.479814
    7       -6.814327
    8       -6.490194
    9        0.946150
   10        1.194983
   11        2.003038
   12        2.396116
 
  0.2916667E+00  0.8333333E-01  0.0000000E+00  0.4629630E-02
    1      -21.595923
    2      -19.189184
    3      -12.813310
    4       -9.592292
    5       -9.242008
    6       -7.844144
    7       -7.065071
    8       -6.850040
    9        1.376178
   10        1.479945
   11        2.185925
   12        2.581801
 
  0.3333333E+00  0.8333333E-01  0.0000000E+00  0.4629630E-02
    1      -21.442993
    2      -19.514104
    3      -12.284023
    4       -9.411883
    5       -9.090852
    6       -8.248569
    7       -7.324149
    8       -7.202457
    9        1.585176
   10        2.026668
   11        2.396732
   12        2.796046
 
  0.3750000E+00  0.8333333E-01  0.0000000E+00  0.4629630E-02
    1      -21.270018
    2      -19.821408
    3      -11.751002
    4       -9.208476
    5       -8.921462
    6       -8.688715
    7       -7.583216
    8       -7.542943
    9        1.821920
   10        2.578712
   11        2.635287
   12        3.038846
 
  0.4166667E+00  0.8333333E-01  0.0000000E+00  0.4629630E-02
    1      -21.077139
    2      -20.110505
    3      -11.217442
    4       -9.158787
    5       -8.982552
    6       -8.734660
    7       -7.868376
    8       -7.836651
    9        2.086340
   10        2.901240
   11        3.127814
   12        3.310193
 
  0.4583333E+00  0.8333333E-01  0.0000000E+00  0.4629630E-02
    1      -20.864528
    2      -20.380947
    3      -10.686956
    4       -9.652476
    5       -8.734712
    6       -8.531433
    7       -8.176517
    8       -8.080753
    9        2.378345
   10        3.044593
   11        3.193621
   12        3.610896
 
  0.5000000E+00  0.8333333E-01  0.0000000E+00  0.2314815E-02
    1      -20.632384
    2      -20.632384
    3      -10.163698
    4      -10.163698
    5       -8.465712
    6       -8.465712
    7       -8.312973
    8       -8.312973
    9        2.697817
   10        2.697817
   11        3.507217
   12        3.507219
 
  0.0000000E+00  0.1111111E+00  0.0000000E+00  0.2314815E-02
    1      -22.002855
    2      -16.770618
    3      -15.772514
    4      -10.112406
    5      -10.074650
    6       -6.649951
    7       -6.248867
    8       -4.805821
    9       -1.173698
   10        0.821578
   11        1.625897
   12        2.013653
 
  0.4166667E-01  0.1111111E+00  0.0000000E+00  0.4629630E-02
    1      -21.992603
    2      -16.939001
    3      -15.589864
    4      -10.101748
    5      -10.062462
    6       -6.694875
    7       -6.258975
    8       -4.875762
    9       -1.090055
   10        0.835513
   11        1.639988
   12        2.027934
 
  0.8333333E-01  0.1111111E+00  0.0000000E+00  0.4629630E-02
    1      -21.961852
    2      -17.278182
    3      -15.208006
    4      -10.069794
    5      -10.025918
    6       -6.818307
    7       -6.299244
    8       -5.068158
    9       -0.856738
   10        0.877321
   11        1.682259
   12        2.070780
 
  0.1250000E+00  0.1111111E+00  0.0000000E+00  0.4629630E-02
    1      -21.910625
    2      -17.654561
    3      -14.760926
    4      -10.016607
    5       -9.965075
    6       -7.000611
    7       -6.385105
    8       -5.345551
    9       -0.511736
   10        0.947014
   11        1.752697
   12        2.142192
 
  0.1666667E+00  0.1111111E+00  0.0000000E+00  0.4629630E-02
    1      -21.838958
    2      -18.032845
    3      -14.284581
    4       -9.942291
    5       -9.880030
    6       -7.227438
    7       -6.523888
    8       -5.672720
    9       -0.091165
   10        1.044601
   11        1.851283
   12        2.242174
 
  0.2083333E+00  0.1111111E+00  0.0000000E+00  0.4629630E-02
    1      -21.746902
    2      -18.402275
    3      -13.790690
    4       -9.846989
    5       -9.770926
    6       -7.490271
    7       -6.714525
    8       -6.024753
    9        0.378825
   10        1.170084
   11        1.977985
   12        2.370727
 
  0.2500000E+00  0.1111111E+00  0.0000000E+00  0.4629630E-02
    1      -21.634527
    2      -18.758500
    3      -13.284905
    4       -9.730875
    5       -9.637952
    6       -7.784842
    7       -6.949715
    8       -6.385679
    9        0.880690
   10        1.323449
   11        2.132760
   12        2.527852
 
  0.2916667E+00  0.1111111E+00  0.0000000E+00  0.4629630E-02
    1      -21.501915
    2      -19.099339
    3      -12.771098
    4       -9.594152
    5       -9.481352
    6       -8.110128
    7       -7.217769
    8       -6.745399
    9        1.402426
   10        1.504668
   11        2.315548
   12        2.713547
 
  0.3333333E+00  0.1111111E+00  0.0000000E+00  0.4629630E-02
    1      -21.349169
    2      -19.423509
    3      -12.252704
    4       -9.437041
    5       -9.301434
    6       -8.467226
    7       -7.504621
    8       -7.097380
    9        1.713695
   10        1.935277
   11        2.526260
   12        2.927806
 
  0.3750000E+00  0.1111111E+00  0.0000000E+00  0.4629630E-02
    1      -21.176413
    2      -19.730166
    3      -11.733268
    4       -9.259764
    5       -9.098582
    6       -8.857536
    7       -7.796401
    8       -7.437249
    9        1.950471
   10        2.472278
   11        2.764752
   12        3.170623
 
  0.4166667E+00  0.1111111E+00  0.0000000E+00  0.4629630E-02
    1      -20.983792
    2      -20.018708
    3      -11.216747
    4       -9.280724
    5       -9.062543
    6       -8.873273
    7       -8.081974
    8       -7.761971
    9        2.214923
   10        3.007109
   11        3.030748
   12        3.442086
 
  0.4583333E+00  0.1111111E+00  0.0000000E+00  0.4629630E-02
    1      -20.771485
    2      -20.288671
    3      -10.707707
    4       -9.733742
    5       -8.845602
    6       -8.626103
    7       -8.354170
    8       -8.069365
    9        2.506959
   10        3.173301
   11        3.323447
   12        3.529762
 
  0.5000000E+00  0.1111111E+00  0.0000000E+00  0.2314815E-02
    1      -20.539695
    2      -20.539695
    3      -10.211412
    4      -10.211412
    5       -8.609257
    6       -8.609257
    7       -8.357817
    8       -8.357817
    9        2.826467
   10        2.826467
   11        3.636601
   12        3.636605
 
  0.0000000E+00  0.1388889E+00  0.0000000E+00  0.2314815E-02
    1      -21.881431
    2      -16.666133
    3      -15.676166
    4      -10.542901
    5       -9.930377
    6       -7.050823
    7       -6.502144
    8       -4.658380
    9       -1.237677
   10        0.986782
   11        1.792982
   12        2.183025
 
  0.4166667E-01  0.1388889E+00  0.0000000E+00  0.4629630E-02
    1      -21.871191
    2      -16.833470
    3      -15.495218
    4      -10.531874
    5       -9.918233
    6       -7.098442
    7       -6.504724
    8       -4.730191
    9       -1.153422
   10        1.000709
   11        1.807060
   12        2.197306
 
  0.8333333E-01  0.1388889E+00  0.0000000E+00  0.4629630E-02
    1      -21.840481
    2      -17.170676
    3      -15.117344
    4      -10.498784
    5       -9.881821
    6       -7.227742
    7       -6.525222
    8       -4.926693
    9       -0.919766
   10        1.042496
   11        1.849290
   12        2.240148
 
  0.1250000E+00  0.1388889E+00  0.0000000E+00  0.4629630E-02
    1      -21.789323
    2      -17.545081
    3      -14.675710
    4      -10.443604
    5       -9.821198
    6       -7.414933
    7       -6.584888
    8       -5.208042
    9       -0.577088
   10        1.112159
   11        1.919659
   12        2.311556
 
  0.1666667E+00  0.1388889E+00  0.0000000E+00  0.4629630E-02
    1      -21.717754
    2      -17.921595
    3      -14.206266
    4      -10.366274
    5       -9.736463
    6       -7.642337
    7       -6.696734
    8       -5.537913
    9       -0.162590
   10        1.209714
   11        2.018146
   12        2.411534
 
  0.2083333E+00  0.1388889E+00  0.0000000E+00  0.4629630E-02
    1      -21.625829
    2      -18.289482
    3      -13.721016
    4      -10.266683
    5       -9.627759
    6       -7.898977
    7       -6.864697
    8       -5.891350
    9        0.297570
   10        1.335170
   11        2.144721
   12        2.540085
 
  0.2500000E+00  0.1388889E+00  0.0000000E+00  0.4629630E-02
    1      -21.513615
    2      -18.644376
    3      -13.226071
    4      -10.144636
    5       -9.495275
    6       -8.178344
    7       -7.085988
    8       -6.252692
    9        0.786232
   10        1.488519
   11        2.299340
   12        2.697212
 
  0.2916667E+00  0.1388889E+00  0.0000000E+00  0.4629630E-02
    1      -21.381202
    2      -18.984069
    3      -12.725953
    4       -9.999807
    5       -9.339257
    6       -8.477236
    7       -7.352783
    8       -6.612163
    9        1.291857
   10        1.669732
   11        2.481946
   12        2.882912
 
  0.3333333E+00  0.1388889E+00  0.0000000E+00  0.4629630E-02
    1      -21.228695
    2      -19.307253
    3      -12.224982
    4       -9.831681
    5       -9.160011
    6       -8.795332
    7       -7.653466
    8       -6.963482
    9        1.806181
   10        1.878761
   11        2.692460
   12        3.097181
 
  0.3750000E+00  0.1388889E+00  0.0000000E+00  0.4629630E-02
    1      -21.056223
    2      -19.613064
    3      -11.727870
    4       -9.639492
    5       -9.134864
    6       -8.957921
    7       -7.973790
    8       -7.302454
    9        2.115540
   10        2.322839
   11        2.930775
   12        3.340012
 
  0.4166667E+00  0.1388889E+00  0.0000000E+00  0.4629630E-02
    1      -20.863940
    2      -19.900877
    3      -11.240031
    4       -9.499697
    5       -9.422224
    6       -8.733459
    7       -8.298463
    8       -7.626162
    9        2.379990
   10        2.836575
   11        3.196718
   12        3.611410
 
  0.4583333E+00  0.1388889E+00  0.0000000E+00  0.4629630E-02
    1      -20.652027
    2      -20.170215
    3      -10.767592
    4       -9.893397
    5       -9.178797
    6       -8.613501
    7       -8.487214
    8       -7.932506
    9        2.672013
   10        3.338289
   11        3.342591
   12        3.489857
 
  0.5000000E+00  0.1388889E+00  0.0000000E+00  0.2314815E-02
    1      -20.420700
    2      -20.420700
    3      -10.316922
    4      -10.316922
    5       -8.908723
    6       -8.908723
    7       -8.219920
    8       -8.219920
    9        2.991494
   10        2.991494
   11        3.791281
   12        3.791339
 
  0.0000000E+00  0.1666667E+00  0.0000000E+00  0.2314815E-02
    1      -21.733258
    2      -16.538508
    3      -15.563245
    4      -11.017096
    5       -9.754697
    6       -7.497174
    7       -6.799378
    8       -4.478558
    9       -1.330029
   10        1.188716
   11        1.997045
   12        2.390045
 
  0.4166667E-01  0.1666667E+00  0.0000000E+00  0.4629630E-02
    1      -21.723035
    2      -16.704878
    3      -15.384249
    4      -11.005437
    5       -9.742611
    6       -7.547464
    7       -6.794030
    8       -4.553087
    9       -1.244667
   10        1.202631
   11        2.011101
   12        2.404323
 
  0.8333333E-01  0.1666667E+00  0.0000000E+00  0.4629630E-02
    1      -21.692376
    2      -17.039868
    3      -15.011614
    4      -10.970390
    5       -9.706372
    6       -7.682860
    7       -6.793206
    8       -4.755419
    9       -1.010004
   10        1.244381
   11        2.053265
   12        2.447160
 
  0.1250000E+00  0.1666667E+00  0.0000000E+00  0.4629630E-02
    1      -21.641303
    2      -17.411873
    3      -14.577659
    4      -10.911738
    5       -9.646038
    6       -7.876060
    7       -6.823199
    8       -5.042183
    9       -0.669922
   10        1.313987
   11        2.123522
   12        2.518558
 
  0.1666667E+00  0.1666667E+00  0.0000000E+00  0.4629630E-02
    1      -21.569855
    2      -17.786180
    3      -14.118346
    4      -10.829081
    5       -9.561710
    6       -8.106780
    7       -6.901918
    8       -5.375596
    9       -0.263028
   10        1.411473
   11        2.221846
   12        2.618525
 
  0.2083333E+00  0.1666667E+00  0.0000000E+00  0.4629630E-02
    1      -21.478088
    2      -18.152125
    3      -13.646217
    4      -10.721762
    5       -9.453531
    6       -8.362395
    7       -7.037591
    8       -5.730759
    9        0.184668
   10        1.536857
   11        2.348202
   12        2.747066
 
  0.2500000E+00  0.1666667E+00  0.0000000E+00  0.4629630E-02
    1      -21.366075
    2      -18.505339
    3      -13.168295
    4      -10.588777
    5       -9.321694
    6       -8.635036
    7       -7.231332
    8       -6.092496
    9        0.656647
   10        1.690142
   11        2.502536
   12        2.904185
 
  0.2916667E+00  0.1666667E+00  0.0000000E+00  0.4629630E-02
    1      -21.233908
    2      -18.843586
    3      -12.690415
    4      -10.428642
    5       -9.166443
    6       -8.919916
    7       -7.478978
    8       -6.451494
    9        1.142061
   10        1.871303
   11        2.684781
   12        3.089883
 
  0.3333333E+00  0.1666667E+00  0.0000000E+00  0.4629630E-02
    1      -21.081697
    2      -19.165530
    3      -12.218640
    4      -10.239287
    5       -9.214662
    6       -8.988088
    7       -7.772364
    8       -6.801820
    9        1.633312
   10        2.080292
   11        2.894843
   12        3.304155
 
  0.3750000E+00  0.1666667E+00  0.0000000E+00  0.4629630E-02
    1      -20.909578
    2      -19.470276
    3      -11.759729
    4      -10.018134
    5       -9.519183
    6       -8.787010
    7       -8.100308
    8       -7.139513
    9        2.124698
   10        2.317035
   11        3.132595
   12        3.546995
 
  0.4166667E+00  0.1666667E+00  0.0000000E+00  0.4629630E-02
    1      -20.717714
    2      -19.757174
    3      -11.320840
    4       -9.835758
    5       -9.762699
    6       -8.563678
    7       -8.449328
    8       -7.461810
    9        2.581440
   10        2.611669
   11        3.397832
   12        3.818390
 
  0.4583333E+00  0.1666667E+00  0.0000000E+00  0.4629630E-02
    1      -20.506293
    2      -20.025729
    3      -10.908160
    4      -10.168952
    5       -9.472167
    6       -8.804310
    7       -8.318673
    8       -7.766711
    9        2.873400
   10        3.090369
   11        3.539448
   12        3.689774
 
  0.5000000E+00  0.1666667E+00  0.0000000E+00  0.2314815E-02
    1      -20.275543
    2      -20.275543
    3      -10.524716
    4      -10.524716
    5       -9.149760
    6       -9.149760
    7       -8.052716
    8       -8.052716
    9        3.192787
   10        3.192787
   11        3.557066
   12        3.557081
 