 running on    8 total cores
 distrk:  each k-point on    8 cores,    1 groups
 distr:  one band on    2 cores,    4 groups
 using from now: INCAR     
 vasp.5.3.5 31Mar14 (build Mar 02 2015 18:14:16) complex                        
  
 POSCAR found type information on POSCAR  C 
 POSCAR found :  1 types and       4 ions
 LDA part: xc-table for Pade appr. of Perdew
 POSCAR, INCAR and KPOINTS ok, starting setup
 WARNING: small aliasing (wrap around) errors must be expected
 FFT: planning ...
 WAVECAR not read
 entering main loop
       N       E                     dE             d eps       ncg     rms          rms(c)
DAV:   1     0.189573929129E+03    0.18957E+03   -0.10627E+04  5928   0.275E+03
DAV:   2    -0.906229288307E+01   -0.19864E+03   -0.17634E+03 10436   0.261E+02
DAV:   3    -0.383358516022E+02   -0.29274E+02   -0.28776E+02  7304   0.120E+02    0.730E+00
RMM:   4    -0.376940609020E+02    0.64179E+00   -0.95224E+00  5928   0.266E+01    0.423E+00
RMM:   5    -0.369337990288E+02    0.76026E+00   -0.28326E+00  5934   0.115E+01    0.729E-01
RMM:   6    -0.369350819071E+02   -0.12829E-02   -0.81721E-02  6376   0.203E+00    0.519E-01
RMM:   7    -0.369255523859E+02    0.95295E-02   -0.33365E-02  5937   0.160E+00    0.345E-01
RMM:   8    -0.369197982591E+02    0.57541E-02   -0.77769E-03  5929   0.585E-01    0.134E-01
RMM:   9    -0.369195456158E+02    0.25264E-03   -0.20632E-02  5928   0.851E-01    0.162E-01
RMM:  10    -0.369193970783E+02    0.14854E-03   -0.27436E-03  5928   0.377E-01    0.307E-02
RMM:  11    -0.369219332931E+02   -0.25362E-02   -0.72906E-04  5929   0.177E-01    0.466E-02
RMM:  12    -0.369223912885E+02   -0.45800E-03   -0.24181E-04  5935   0.103E-01    0.500E-03
RMM:  13    -0.369226451835E+02   -0.25390E-03   -0.52785E-05  6007   0.411E-02    0.466E-03
RMM:  14    -0.369227307000E+02   -0.85516E-04   -0.11952E-05  5940   0.201E-02    0.230E-03
RMM:  15    -0.369227387927E+02   -0.80927E-05   -0.15056E-06  5999   0.744E-03    0.894E-04
RMM:  16    -0.369227503153E+02   -0.11523E-04   -0.43224E-07  6005   0.390E-03    0.478E-04
RMM:  17    -0.369227544335E+02   -0.41182E-05   -0.33225E-08  6099   0.145E-03    0.758E-04
RMM:  18    -0.369227559075E+02   -0.14739E-05   -0.63218E-08  5928   0.182E-03    0.723E-05
WARNING in EDDRMM: call to ZHEGV failed, returncode =   6  3  1
WARNING in EDDRMM: call to ZHEGV failed, returncode =   6  3  1
RMM:  19    -0.369227565883E+02   -0.68086E-06   -0.95087E-09  6052   0.489E-04    0.196E-05
RMM:  20    -0.369227566416E+02   -0.53308E-07   -0.81435E-10  4476   0.143E-04    0.294E-05
RMM:  21    -0.369227566624E+02   -0.20820E-07   -0.32671E-10  4452   0.106E-04    0.415E-06
RMM:  22    -0.369227566624E+02    0.85606E-10   -0.28246E-12  3892   0.429E-05
   1 F= -.36922757E+02 E0= -.36922712E+02  d E =-.369228E+02
 BRION: g(F)=  0.263E-06 g(S)=  0.000E+00
 bond charge predicted
       N       E                     dE             d eps       ncg     rms          rms(c)
DAV:   1    -0.369227562644E+02    0.39802E-06   -0.35429E-05  6664   0.561E-02    0.120E-03
RMM:   2    -0.369227562845E+02   -0.20055E-07   -0.57916E-07  5947   0.674E-03    0.855E-04
RMM:   3    -0.369227562694E+02    0.15094E-07   -0.10129E-07  5979   0.256E-03    0.215E-04
 num prob RMM:   4    -0.369227562671E+02    0.22497E-08   -0.61439E-09  6036   0.618E-04    0.614E-05
RMM:   5    -0.369227562678E+02   -0.67894E-09   -0.43330E-10  4498   0.156E-04    0.279E-05
RMM:   6    -0.369227562674E+02    0.36277E-09   -0.56617E-11  3772   0.728E-05    0.354E-06
RMM:   7    -0.369227562676E+02   -0.13858E-09   -0.16558E-11  3742   0.497E-05    0.221E-06
RMM:   8    -0.369227562677E+02   -0.15780E-09   -0.15347E-11  3197   0.361E-05    0.806E-07
RMM:   9    -0.369227562675E+02    0.24443E-09   -0.26986E-12  2845   0.285E-05    0.614E-07
RMM:  10    -0.369227562675E+02   -0.39563E-10   -0.39774E-12  2586   0.252E-05
   2 F= -.36922756E+02 E0= -.36922712E+02  d E =0.394814E-06
 BRION: g(F)=  0.426E-05 g(S)=  0.000E+00 retain N=  1 mean eig= 0.20
 eig:   0.199
 bond charge predicted
       N       E                     dE             d eps       ncg     rms          rms(c)
DAV:   1    -0.369227566932E+02   -0.42574E-06   -0.22724E-05  6572   0.449E-02    0.963E-04
RMM:   2    -0.369227567048E+02   -0.11609E-07   -0.35863E-07  5933   0.539E-03    0.684E-04
RMM:   3    -0.369227566905E+02    0.14303E-07   -0.63516E-08  5967   0.203E-03    0.166E-04
WARNING in EDDRMM: call to ZHEGV failed, returncode =   6  3  1
RMM:   4    -0.369227566899E+02    0.66473E-09   -0.36800E-09  6056   0.483E-04    0.490E-05
RMM:   5    -0.369227566899E+02    0.24215E-10   -0.25235E-10  4203   0.123E-04
   3 F= -.36922757E+02 E0= -.36922712E+02  d E =-.422313E-06
 BRION: g(F)=  0.776E-13 g(S)=  0.000E+00 retain N=  1 mean eig= 0.20
 eig:   0.199
 reached required accuracy - stopping structural energy minimisation
