gr                                      
           1
     4.269427    0.000000    0.000000
     0.000000    2.479513    0.000000
     0.000000    0.000000   19.916486
   C 
   4
Direct configuration=     1
   0.00013158  0.00000000  0.00000000
   0.16653509  0.50000000  0.00000000
   0.50013158  0.50000000  0.00000000
   0.66653509  0.00000000  0.00000000
Direct configuration=     2
   0.00011839  0.00000000  0.00000000
   0.16654828  0.50000000 -0.00000000
   0.50011839  0.50000000  0.00000000
   0.66654828 -0.00000000 -0.00000000
Direct configuration=     3
   0.00012895  0.00000000  0.00000000
   0.16653771  0.50000000 -0.00000000
   0.50012895  0.50000000  0.00000000
   0.66653771 -0.00000000 -0.00000000
