    4    4  400    1
  0.5270948E+02  0.4265674E-09  0.2491850E-09  0.1983532E-08  0.5000000E-15
  1.000000000000000E-004
  CAR 
 gr                                      
     16    247     12
 
  0.0000000E+00  0.0000000E+00  0.0000000E+00  0.1157407E-02
    1      -22.184795
    2      -16.893113
    3      -15.928549
    4      -10.305763
    5       -9.291772
    6       -5.874705
    7       -5.763691
    8       -5.027330
    9       -1.099124
   10        0.532079
   11        1.332052
   12        1.719139
 
  0.4166667E-01  0.0000000E+00  0.0000000E+00  0.2314815E-02
    1      -22.174494
    2      -17.069724
    3      -15.736768
    4      -10.293489
    5       -9.281493
    6       -5.897744
    7       -5.805422
    8       -5.095254
    9       -1.015671
   10        0.546047
   11        1.346185
   12        1.733446
 
  0.8333333E-01  0.0000000E+00  0.0000000E+00  0.2314815E-02
    1      -22.143596
    2      -17.418643
    3      -15.342427
    4      -10.256688
    5       -9.250705
    6       -5.965562
    7       -5.928981
    8       -5.283226
    9       -0.781285
   10        0.587949
   11        1.388579
   12        1.776366
 
  0.1250000E+00  0.0000000E+00  0.0000000E+00  0.2314815E-02
    1      -22.092121
    2      -17.801961
    3      -14.883702
    4      -10.195415
    5       -9.199560
    6       -6.129725
    7       -6.074492
    8       -5.556466
    9       -0.431270
   10        0.657786
   11        1.459223
   12        1.847899
 
  0.1666667E+00  0.0000000E+00  0.0000000E+00  0.2314815E-02
    1      -22.020101
    2      -18.185530
    3      -14.395200
    4      -10.109770
    5       -9.128320
    6       -6.400690
    7       -6.219089
    8       -5.881057
    9       -0.000425
   10        0.755557
   11        1.558096
   12        1.948047
 
  0.2083333E+00  0.0000000E+00  0.0000000E+00  0.2314815E-02
    1      -21.927588
    2      -18.559237
    3      -13.887693
    4       -9.999891
    5       -9.037359
    6       -6.733487
    7       -6.392880
    8       -6.232153
    9        0.485149
   10        0.881253
   11        1.685165
   12        2.076809
 
  0.2500000E+00  0.0000000E+00  0.0000000E+00  0.2314815E-02
    1      -21.814644
    2      -18.919045
    3      -13.366086
    4       -9.865967
    5       -8.927180
    6       -7.119162
    7       -6.593407
    8       -6.589068
    9        1.007446
   10        1.034856
   11        1.840383
   12        2.234183
 
  0.2916667E+00  0.0000000E+00  0.0000000E+00  0.2314815E-02
    1      -21.681349
    2      -19.262948
    3      -12.833497
    4       -9.708243
    5       -8.798432
    6       -7.548864
    7       -6.954302
    8       -6.801069
    9        1.216339
   10        1.553826
   11        2.023679
   12        2.420165
 
  0.3333333E+00  0.0000000E+00  0.0000000E+00  0.2314815E-02
    1      -21.527800
    2      -19.589774
    3      -12.292476
    4       -9.527027
    5       -8.651926
    6       -8.014297
    7       -7.307972
    8       -7.022852
    9        1.425661
   10        2.114670
   11        2.234940
   12        2.634749
 
  0.3750000E+00  0.0000000E+00  0.0000000E+00  0.2314815E-02
    1      -21.354112
    2      -19.898752
    3      -11.745475
    4       -9.322705
    5       -8.507946
    6       -8.488671
    7       -7.649810
    8       -7.249093
    9        1.662766
   10        2.473973
   11        2.681304
   12        2.877924
 
  0.4166667E+00  0.0000000E+00  0.0000000E+00  0.2314815E-02
    1      -21.160419
    2      -20.189330
    3      -11.195081
    4       -9.095761
    5       -9.023169
    6       -8.309903
    7       -7.976617
    8       -7.475209
    9        1.927575
   10        2.740386
   11        3.149692
   12        3.259491
 
  0.4583333E+00  0.0000000E+00  0.0000000E+00  0.2314815E-02
    1      -20.946883
    2      -20.461089
    3      -10.644154
    4       -9.554171
    5       -8.846802
    6       -8.286106
    7       -8.117132
    8       -7.697324
    9        2.219980
   10        2.886813
   11        3.033155
   12        3.449944
 
  0.5000000E+00  0.0000000E+00  0.0000000E+00  0.1157407E-02
    1      -20.713697
    2      -20.713697
    3      -10.095939
    4      -10.095939
    5       -8.576591
    6       -8.576591
    7       -7.912196
    8       -7.912196
    9        2.539817
   10        2.539817
   11        3.347996
   12        3.347996
 
  0.0000000E+00  0.2777778E-01  0.0000000E+00  0.2314815E-02
    1      -22.171396
    2      -16.881590
    3      -15.917434
    4      -10.289797
    5       -9.351975
    6       -5.930142
    7       -5.794743
    8       -5.011058
    9       -1.103977
   10        0.550234
   11        1.350455
   12        1.737767
 
  0.4166667E-01  0.2777778E-01  0.0000000E+00  0.4629630E-02
    1      -22.161096
    2      -17.058051
    3      -15.725858
    4      -10.277528
    5       -9.341673
    6       -5.958286
    7       -5.830671
    8       -5.079140
    9       -1.020490
   10        0.564202
   11        1.364586
   12        1.752074
 
  0.8333333E-01  0.2777778E-01  0.0000000E+00  0.4629630E-02
    1      -22.130202
    2      -17.406733
    3      -15.331921
    4      -10.240740
    5       -9.310818
    6       -6.047087
    7       -5.931277
    8       -5.267469
    9       -0.786119
   10        0.606107
   11        1.406978
   12        1.794994
 
  0.1250000E+00  0.2777778E-01  0.0000000E+00  0.4629630E-02
    1      -22.078733
    2      -17.789833
    3      -14.873700
    4      -10.179489
    5       -9.259557
    6       -6.212451
    7       -6.072678
    8       -5.541071
    9       -0.436365
   10        0.675949
   11        1.477617
   12        1.866529
 
  0.1666667E+00  0.2777778E-01  0.0000000E+00  0.4629630E-02
    1      -22.006725
    2      -18.173213
    3      -14.385802
    4      -10.093874
    5       -9.188142
    6       -6.461472
    7       -6.235782
    8       -5.865924
    9       -0.006133
   10        0.773727
   11        1.576483
   12        1.966679
 
  0.2083333E+00  0.2777778E-01  0.0000000E+00  0.4629630E-02
    1      -21.914225
    2      -18.546756
    3      -13.879016
    4       -9.984034
    5       -9.096939
    6       -6.780276
    7       -6.419976
    8       -6.217168
    9        0.478464
   10        0.899432
   11        1.703544
   12        2.095442
 
  0.2500000E+00  0.2777778E-01  0.0000000E+00  0.4629630E-02
    1      -21.801299
    2      -18.906424
    3      -13.358274
    4       -9.850158
    5       -8.986435
    6       -7.155431
    7       -6.623223
    8       -6.578477
    9        0.999444
   10        1.053046
   11        1.858753
   12        2.252819
 
  0.2916667E+00  0.2777778E-01  0.0000000E+00  0.4629630E-02
    1      -21.668026
    2      -19.250206
    3      -12.826724
    4       -9.692490
    5       -8.857259
    6       -7.576612
    7       -6.939361
    8       -6.840588
    9        1.234542
   10        1.544216
   11        2.042039
   12        2.438804
 
  0.3333333E+00  0.2777778E-01  0.0000000E+00  0.4629630E-02
    1      -21.514503
    2      -19.576927
    3      -12.286952
    4       -9.511339
    5       -8.710199
    6       -8.034992
    7       -7.292980
    8       -7.066638
    9        1.443879
   10        2.103231
   11        2.253293
   12        2.653393
 
  0.3750000E+00  0.2777778E-01  0.0000000E+00  0.4629630E-02
    1      -21.340845
    2      -19.885816
    3      -11.741462
    4       -9.307090
    5       -8.546233
    6       -8.522791
    7       -7.634741
    8       -7.296324
    9        1.680999
   10        2.492323
   11        2.667998
   12        2.896574
 
  0.4166667E+00  0.2777778E-01  0.0000000E+00  0.4629630E-02
    1      -21.147188
    2      -20.176316
    3      -11.192897
    4       -9.080228
    5       -9.033175
    6       -8.366560
    7       -7.961458
    8       -7.525227
    9        1.945828
   10        2.758745
   11        3.168328
   12        3.226428
 
  0.4583333E+00  0.2777778E-01  0.0000000E+00  0.4629630E-02
    1      -20.933695
    2      -20.448008
    3      -10.644190
    4       -9.560188
    5       -8.831356
    6       -8.270850
    7       -8.172644
    8       -7.749590
    9        2.238259
   10        2.905204
   11        3.051547
   12        3.468622
 
  0.5000000E+00  0.2777778E-01  0.0000000E+00  0.2314815E-02
    1      -20.700559
    2      -20.700559
    3      -10.098674
    4      -10.098674
    5       -8.561239
    6       -8.561239
    7       -7.966267
    8       -7.966267
    9        2.558136
   10        2.558136
   11        3.366386
   12        3.366386
 
  0.0000000E+00  0.5555556E-01  0.0000000E+00  0.2314815E-02
    1      -22.131207
    2      -16.847026
    3      -15.884263
    4      -10.241934
    5       -9.527714
    6       -6.092085
    7       -5.887045
    8       -4.962260
    9       -1.119350
   10        0.604703
   11        1.405655
   12        1.793653
 
  0.4166667E-01  0.5555556E-01  0.0000000E+00  0.4629630E-02
    1      -22.120911
    2      -17.023052
    3      -15.693292
    4      -10.229678
    5       -9.517340
    6       -6.127485
    7       -5.913679
    8       -5.030830
    9       -1.035753
   10        0.618673
   11        1.419784
   12        1.807960
 
  0.8333333E-01  0.5555556E-01  0.0000000E+00  0.4629630E-02
    1      -22.090030
    2      -17.371028
    3      -15.300577
    4      -10.192929
    5       -9.486265
    6       -6.232052
    7       -5.992759
    8       -5.220262
    9       -0.801416
   10        0.660584
   11        1.462166
   12        1.850882
 
  0.1250000E+00  0.5555556E-01  0.0000000E+00  0.4629630E-02
    1      -22.038583
    2      -17.753476
    3      -14.843891
    4      -10.131744
    5       -9.434622
    6       -6.402366
    7       -6.120650
    8       -5.494973
    9       -0.452450
   10        0.730437
   11        1.532790
   12        1.922419
 
  0.1666667E+00  0.5555556E-01  0.0000000E+00  0.4629630E-02
    1      -21.966607
    2      -18.136286
    3      -14.357845
    4      -10.046221
    5       -9.362640
    6       -6.635181
    7       -6.289785
    8       -5.820623
    9       -0.024084
   10        0.828232
   11        1.631635
   12        2.022572
 
  0.2083333E+00  0.5555556E-01  0.0000000E+00  0.4629630E-02
    1      -21.874150
    2      -18.509338
    3      -13.853284
    4       -9.936500
    5       -9.270646
    6       -6.927218
    7       -6.490076
    8       -6.172313
    9        0.457529
   10        0.953960
   11        1.758671
   12        2.151340
 
  0.2500000E+00  0.5555556E-01  0.0000000E+00  0.4629630E-02
    1      -21.761276
    2      -18.868582
    3      -13.335218
    4       -9.802770
    5       -9.159080
    6       -7.273834
    7       -6.711534
    8       -6.533785
    9        0.974495
   10        1.107603
   11        1.913850
   12        2.308724
 
  0.2916667E+00  0.5555556E-01  0.0000000E+00  0.4629630E-02
    1      -21.628069
    2      -19.211999
    3      -12.806894
    4       -9.645274
    5       -9.028505
    6       -7.668616
    7       -6.945826
    8       -6.894635
    9        1.289131
   10        1.514355
   11        2.097105
   12        2.494718
 
  0.3333333E+00  0.5555556E-01  0.0000000E+00  0.4629630E-02
    1      -21.474624
    2      -19.538406
    3      -12.271029
    4       -9.464321
    5       -8.879626
    6       -8.104093
    7       -7.248092
    8       -7.186398
    9        1.498504
   10        2.067768
   11        2.308332
   12        2.709319
 
  0.3750000E+00  0.5555556E-01  0.0000000E+00  0.4629630E-02
    1      -21.301058
    2      -19.847023
    3      -11.730284
    4       -9.260296
    5       -8.713315
    6       -8.572653
    7       -7.589616
    8       -7.428071
    9        1.735667
   10        2.547350
   11        2.626716
   12        2.952515
 
  0.4166667E+00  0.5555556E-01  0.0000000E+00  0.4629630E-02
    1      -21.107511
    2      -20.137291
    3      -11.187502
    4       -9.067146
    5       -9.033681
    6       -8.530637
    7       -7.916054
    8       -7.666673
    9        2.000544
   10        2.813799
   11        3.181159
   12        3.224292
 
  0.4583333E+00  0.5555556E-01  0.0000000E+00  0.4629630E-02
    1      -20.894145
    2      -20.408781
    3      -10.645864
    4       -9.581143
    5       -8.785077
    6       -8.332887
    7       -8.225152
    8       -7.898797
    9        2.293037
   10        2.960240
   11        3.106706
   12        3.524674
 
  0.5000000E+00  0.5555556E-01  0.0000000E+00  0.2314815E-02
    1      -20.661158
    2      -20.661158
    3      -10.109009
    4      -10.109009
    5       -8.515245
    6       -8.515245
    7       -8.121638
    8       -8.121638
    9        2.613007
   10        2.613007
   11        3.421541
   12        3.421541
 
  0.0000000E+00  0.8333333E-01  0.0000000E+00  0.2314815E-02
    1      -22.064265
    2      -16.789432
    3      -15.829588
    4      -10.162273
    5       -9.805713
    6       -6.348742
    7       -6.038101
    8       -4.880997
    9       -1.147683
   10        0.695505
   11        1.497633
   12        1.886799
 
  0.4166667E-01  0.8333333E-01  0.0000000E+00  0.4629630E-02
    1      -22.053976
    2      -16.964779
    3      -15.639597
    4      -10.150040
    5       -9.795200
    6       -6.389380
    7       -6.056270
    8       -4.950431
    9       -1.063871
   10        0.709475
   11        1.511756
   12        1.901106
 
  0.8333333E-01  0.8333333E-01  0.0000000E+00  0.4629630E-02
    1      -22.023117
    2      -17.311608
    3      -15.248944
    4      -10.113358
    5       -9.763698
    6       -6.504172
    7       -6.115965
    8       -5.141804
    9       -0.829544
   10        0.751389
   11        1.554121
   12        1.944029
 
  0.1250000E+00  0.8333333E-01  0.0000000E+00  0.4629630E-02
    1      -21.971708
    2      -17.692972
    3      -14.794910
    4      -10.052286
    5       -9.711312
    6       -6.679956
    7       -6.224676
    8       -5.418445
    9       -0.481905
   10        0.821251
   11        1.624717
   12        2.015568
 
  0.1666667E+00  0.8333333E-01  0.0000000E+00  0.4629630E-02
    1      -21.899785
    2      -18.074828
    3      -14.312104
    4       -9.966921
    5       -9.638221
    6       -6.906533
    7       -6.383592
    8       -5.745465
    9       -0.056738
   10        0.919061
   11        1.723523
   12        2.115725
 
  0.2083333E+00  0.8333333E-01  0.0000000E+00  0.4629630E-02
    1      -21.807398
    2      -18.447052
    3      -13.811473
    4       -9.857403
    5       -9.544679
    6       -7.178076
    7       -6.586931
    8       -6.097908
    9        0.419751
   10        1.044812
   11        1.850510
   12        2.244500
 
  0.2500000E+00  0.8333333E-01  0.0000000E+00  0.4629630E-02
    1      -21.694614
    2      -18.805583
    3      -13.298175
    4       -9.723922
    5       -9.431025
    6       -7.492085
    7       -6.823951
    8       -6.459643
    9        0.929823
   10        1.198487
   11        2.005633
   12        2.401892
 
  0.2916667E+00  0.8333333E-01  0.0000000E+00  0.4629630E-02
    1      -21.561516
    2      -19.148386
    3      -12.775661
    4       -9.566722
    5       -9.297683
    6       -7.847630
    7       -7.081722
    8       -6.820417
    9        1.380055
   10        1.461244
   11        2.188827
   12        2.587898
 
  0.3333333E+00  0.8333333E-01  0.0000000E+00  0.4629630E-02
    1      -21.408201
    2      -19.474263
    3      -12.246904
    4       -9.386109
    5       -9.145177
    6       -8.243229
    7       -7.348145
    8       -7.173582
    9        1.589472
   10        2.004980
   11        2.399998
   12        2.802513
 
  0.3750000E+00  0.8333333E-01  0.0000000E+00  0.4629630E-02
    1      -21.234790
    2      -19.782425
    3      -11.714897
    4       -9.182469
    5       -8.974138
    6       -8.675426
    7       -7.613997
    8       -7.514685
    9        1.826682
   10        2.553617
   11        2.638985
   12        3.045728
 
  0.4166667E+00  0.8333333E-01  0.0000000E+00  0.4629630E-02
    1      -21.041425
    2      -20.072300
    3      -11.182910
    4       -9.138870
    5       -8.956280
    6       -8.785317
    7       -7.873218
    8       -7.840636
    9        2.091612
   10        2.905471
   11        3.099493
   12        3.317533
 
  0.4583333E+00  0.8333333E-01  0.0000000E+00  0.4629630E-02
    1      -20.828274
    2      -20.343452
    3      -10.654662
    4       -9.627295
    5       -8.708140
    6       -8.579609
    7       -8.149221
    8       -8.122052
    9        2.384169
   10        3.051622
   11        3.198575
   12        3.617811
 
  0.5000000E+00  0.8333333E-01  0.0000000E+00  0.2314815E-02
    1      -20.595537
    2      -20.595537
    3      -10.134460
    4      -10.134460
    5       -8.438802
    6       -8.438802
    7       -8.358083
    8       -8.358083
    9        2.704231
   10        2.704231
   11        3.513382
   12        3.513382
 
  0.0000000E+00  0.1111111E+00  0.0000000E+00  0.2314815E-02
    1      -21.970633
    2      -16.708828
    3      -15.754460
    4      -10.167421
    5      -10.050984
    6       -6.683945
    7       -6.243967
    8       -4.767368
    9       -1.192979
   10        0.822658
   11        1.626349
   12        2.017211
 
  0.4166667E-01  0.1111111E+00  0.0000000E+00  0.4629630E-02
    1      -21.960354
    2      -16.883330
    3      -15.565779
    4      -10.156667
    5      -10.038783
    6       -6.728478
    7       -6.254061
    8       -4.838133
    9       -1.108784
   10        0.836626
   11        1.640463
   12        2.031518
 
  0.8333333E-01  0.1111111E+00  0.0000000E+00  0.4629630E-02
    1      -21.929526
    2      -17.228620
    3      -15.178081
    4      -10.124423
    5      -10.002200
    6       -6.851285
    7       -6.293799
    8       -5.032458
    9       -0.874349
   10        0.878535
   11        1.682801
   12        2.074439
 
  0.1250000E+00  0.1111111E+00  0.0000000E+00  0.4629630E-02
    1      -21.878170
    2      -17.608470
    3      -14.727995
    4      -10.070742
    5       -9.941292
    6       -7.033006
    7       -6.378492
    8       -5.311987
    9       -0.528565
   10        0.948391
   11        1.753351
   12        2.145978
 
  0.1666667E+00  0.1111111E+00  0.0000000E+00  0.4629630E-02
    1      -21.806322
    2      -17.988977
    3      -14.250111
    4       -9.995711
    5       -9.856158
    6       -7.258857
    7       -6.516127
    8       -5.641015
    9       -0.108033
   10        1.046201
   11        1.852094
   12        2.246136
 
  0.2083333E+00  0.1111111E+00  0.0000000E+00  0.4629630E-02
    1      -21.714035
    2      -18.360026
    3      -13.755543
    4       -9.899442
    5       -9.746938
    6       -7.519733
    7       -6.706463
    8       -5.994529
    9        0.360999
   10        1.171960
   11        1.978998
   12        2.374915
 
  0.2500000E+00  0.1111111E+00  0.0000000E+00  0.4629630E-02
    1      -21.601377
    2      -18.717542
    3      -13.249722
    4       -9.782071
    5       -9.613822
    6       -7.810804
    7       -6.942968
    8       -6.356607
    9        0.861047
   10        1.325654
   11        2.134023
   12        2.532315
 
  0.2916667E+00  0.1111111E+00  0.0000000E+00  0.4629630E-02
    1      -21.468431
    2      -19.059470
    3      -12.736468
    4       -9.643742
    5       -9.457053
    6       -8.130638
    7       -7.214515
    8       -6.717230
    9        1.380209
   10        1.507249
   11        2.317108
   12        2.718332
 
  0.3333333E+00  0.1111111E+00  0.0000000E+00  0.4629630E-02
    1      -21.315300
    2      -19.384595
    3      -12.219251
    4       -9.484593
    5       -9.276940
    6       -8.480314
    7       -7.507152
    8       -7.069931
    9        1.716699
   10        1.909843
   11        2.528170
   12        2.932961
 
  0.3750000E+00  0.1111111E+00  0.0000000E+00  0.4629630E-02
    1      -21.142108
    2      -19.692108
    3      -11.701720
    4       -9.304734
    5       -9.073866
    6       -8.861850
    7       -7.806434
    8       -7.410390
    9        1.953944
   10        2.443130
   11        2.767077
   12        3.176195
 
  0.4166667E+00  0.1111111E+00  0.0000000E+00  0.4629630E-02
    1      -20.949000
    2      -19.981426
    3      -11.187993
    4       -9.276029
    5       -9.104232
    6       -8.848304
    7       -8.100108
    8       -7.735606
    9        2.218909
   10        2.974040
   11        3.033585
   12        3.448024
 
  0.4583333E+00  0.1111111E+00  0.0000000E+00  0.4629630E-02
    1      -20.736153
    2      -20.252099
    3      -10.682851
    4       -9.720877
    5       -8.883120
    6       -8.600849
    7       -8.379914
    8       -8.043422
    9        2.511504
   10        3.179080
   11        3.327003
   12        3.494127
 
  0.5000000E+00  0.1111111E+00  0.0000000E+00  0.2314815E-02
    1      -20.503771
    2      -20.503771
    3      -10.191797
    4      -10.191797
    5       -8.641505
    6       -8.641505
    7       -8.332241
    8       -8.332241
    9        2.831612
   10        2.831612
   11        3.641544
   12        3.641544
 
  0.0000000E+00  0.1388889E+00  0.0000000E+00  0.2314815E-02
    1      -21.850399
    2      -16.605245
    3      -15.660662
    4      -10.592251
    5       -9.908309
    6       -7.080404
    7       -6.499547
    8       -4.621519
    9       -1.260656
   10        0.986177
   11        1.791748
   12        2.184892
 
  0.4166667E-01  0.1388889E+00  0.0000000E+00  0.4629630E-02
    1      -21.840134
    2      -16.778861
    3      -15.473559
    4      -10.581090
    5       -9.896152
    6       -7.128229
    7       -6.501485
    8       -4.694235
    9       -1.175785
   10        1.000138
   11        1.805847
   12        2.199198
 
  0.8333333E-01  0.1388889E+00  0.0000000E+00  0.4629630E-02
    1      -21.809346
    2      -17.122294
    3      -15.089832
    4      -10.547592
    5       -9.859703
    6       -7.258217
    7       -6.520049
    8       -4.892818
    9       -0.940916
   10        1.042026
   11        1.848142
   12        2.242116
 
  0.1250000E+00  0.1388889E+00  0.0000000E+00  0.4629630E-02
    1      -21.758058
    2      -17.500207
    3      -14.645346
    4      -10.491708
    5       -9.799019
    6       -7.446395
    7       -6.576826
    8       -5.176406
    9       -0.597441
   10        1.111855
   11        1.918620
   12        2.313651
 
  0.1666667E+00  0.1388889E+00  0.0000000E+00  0.4629630E-02
    1      -21.686309
    2      -17.878951
    3      -14.174650
    4      -10.413341
    5       -9.714199
    6       -7.674676
    7       -6.685472
    8       -5.508171
    9       -0.183063
   10        1.209636
   11        2.017258
   12        2.413806
 
  0.2083333E+00  0.1388889E+00  0.0000000E+00  0.4629630E-02
    1      -21.594152
    2      -18.248453
    3      -13.689156
    4      -10.312322
    5       -9.605384
    6       -7.931695
    7       -6.850566
    8       -5.863081
    9        0.275991
   10        1.335373
   11        2.144027
   12        2.542583
 
  0.2500000E+00  0.1388889E+00  0.0000000E+00  0.4629630E-02
    1      -21.481655
    2      -18.604632
    3      -13.194792
    4      -10.188367
    5       -9.472766
    6       -8.210580
    7       -7.069915
    8       -6.225544
    9        0.762654
   10        1.489055
   11        2.298882
   12        2.699985
 
  0.2916667E+00  0.1388889E+00  0.0000000E+00  0.4629630E-02
    1      -21.348908
    2      -18.945408
    3      -12.696095
    4      -10.041027
    5       -9.316589
    6       -8.507742
    7       -7.336263
    8       -6.585879
    9        1.265511
   10        1.670649
   11        2.481767
   12        2.886009
 
  0.3333333E+00  0.1388889E+00  0.0000000E+00  0.4629630E-02
    1      -21.196015
    2      -19.269543
    3      -12.197512
    4       -9.869612
    5       -9.137160
    6       -8.822431
    7       -7.638535
    8       -6.937879
    9        1.776419
   10        1.880106
   11        2.692605
   12        3.100649
 
  0.3750000E+00  0.1388889E+00  0.0000000E+00  0.4629630E-02
    1      -21.023107
    2      -19.576204
    3      -11.703975
    4       -9.673134
    5       -9.156515
    6       -8.934861
    7       -7.962897
    8       -7.277403
    9        2.117359
   10        2.289141
   11        2.931294
   12        3.343898
 
  0.4166667E+00  0.1388889E+00  0.0000000E+00  0.4629630E-02
    1      -20.830337
    2      -19.864790
    3      -11.221156
    4       -9.513840
    5       -9.450325
    6       -8.710164
    7       -8.294082
    8       -7.601571
    9        2.382327
   10        2.798566
   11        3.197685
   12        3.615746
 
  0.4583333E+00  0.1388889E+00  0.0000000E+00  0.4629630E-02
    1      -20.617885
    2      -20.134834
    3      -10.755388
    4       -9.898602
    5       -9.199931
    6       -8.617449
    7       -8.463654
    8       -7.908305
    9        2.674914
   10        3.300191
   11        3.342446
   12        3.491466
 
  0.5000000E+00  0.1388889E+00  0.0000000E+00  0.2314815E-02
    1      -20.385966
    2      -20.385966
    3      -10.312954
    4      -10.312954
    5       -8.921581
    6       -8.921581
    7       -8.196061
    8       -8.196061
    9        2.995002
   10        2.995002
   11        3.777790
   12        3.778283
 
  0.0000000E+00  0.1666667E+00  0.0000000E+00  0.2314815E-02
    1      -21.703683
    2      -16.478722
    3      -15.551201
    4      -11.059588
    5       -9.734574
    6       -7.521972
    7       -6.798935
    8       -4.443639
    9       -1.357208
   10        1.186057
   11        1.993750
   12        2.389845
 
  0.4166667E-01  0.1666667E+00  0.0000000E+00  0.4629630E-02
    1      -21.693435
    2      -16.651618
    3      -15.365862
    4      -11.047731
    5       -9.722476
    6       -7.572864
    7       -6.792536
    8       -4.519198
    9       -1.271123
   10        1.200006
   11        2.007827
   12        2.404149
 
  0.8333333E-01  0.1666667E+00  0.0000000E+00  0.4629630E-02
    1      -21.662698
    2      -16.992993
    3      -14.987405
    4      -11.012075
    5       -9.686203
    6       -7.709789
    7       -6.788888
    8       -4.723832
    9       -1.035078
   10        1.241859
   11        2.050052
   12        2.447062
 
  0.1250000E+00  0.1666667E+00  0.0000000E+00  0.4629630E-02
    1      -21.611496
    2      -17.368542
    3      -14.550898
    4      -10.952363
    5       -9.625812
    6       -7.904910
    7       -6.814970
    8       -5.012973
    9       -0.694144
   10        1.311632
   11        2.120410
   12        2.518587
 
  0.1666667E+00  0.1666667E+00  0.0000000E+00  0.4629630E-02
    1      -21.539867
    2      -17.745076
    3      -14.090865
    4      -10.868112
    5       -9.541404
    6       -8.137517
    7       -6.889341
    8       -5.348318
    9       -0.287438
   10        1.409347
   11        2.218876
   12        2.618731
 
  0.2083333E+00  0.1666667E+00  0.0000000E+00  0.4629630E-02
    1      -21.447867
    2      -18.112624
    3      -13.619288
    4      -10.758547
    5       -9.433123
    6       -8.394721
    7       -7.020752
    8       -5.704930
    9        0.159019
   10        1.535018
   11        2.345410
   12        2.747499
 
  0.2500000E+00  0.1666667E+00  0.0000000E+00  0.4629630E-02
    1      -21.335572
    2      -18.467107
    3      -13.143097
    4      -10.622483
    5       -9.301161
    6       -8.668462
    7       -7.210761
    8       -6.067740
    9        0.628842
   10        1.688642
   11        2.499957
   12        2.904894
 
  0.2916667E+00  0.1666667E+00  0.0000000E+00  0.4629630E-02
    1      -21.203070
    2      -18.806425
    3      -12.668255
    4      -10.458189
    5       -9.145765
    6       -8.953764
    7       -7.455597
    8       -6.427545
    9        1.111345
   10        1.870192
   11        2.682444
   12        3.090916
 
  0.3333333E+00  0.1666667E+00  0.0000000E+00  0.4629630E-02
    1      -21.050474
    2      -19.129307
    3      -12.201072
    4      -10.263312
    5       -9.248013
    6       -8.967242
    7       -7.747472
    8       -6.778495
    9        1.599073
   10        2.079614
   11        2.892768
   12        3.305561
 
  0.3750000E+00  0.1666667E+00  0.0000000E+00  0.4629630E-02
    1      -20.877920
    2      -19.434895
    3      -11.748532
    4      -10.035042
    5       -9.550786
    6       -8.765972
    7       -8.075603
    8       -7.116686
    9        2.086459
   10        2.316836
   11        3.130779
   12        3.548820
 
  0.4166667E+00  0.1666667E+00  0.0000000E+00  0.4629630E-02
    1      -20.685569
    2      -19.722559
    3      -11.317746
    4       -9.863943
    5       -9.770959
    6       -8.542427
    7       -8.426935
    8       -7.439396
    9        2.569070
   10        2.581766
   11        3.396187
   12        3.820683
 
  0.4583333E+00  0.1666667E+00  0.0000000E+00  0.4629630E-02
    1      -20.473612
    2      -19.991815
    3      -10.914260
    4      -10.191663
    5       -9.470920
    6       -8.786714
    7       -8.297183
    8       -7.744647
    9        2.874295
   10        3.043136
   11        3.541616
   12        3.687139
 
  0.5000000E+00  0.1666667E+00  0.0000000E+00  0.2314815E-02
    1      -20.242272
    2      -20.242272
    3      -10.539848
    4      -10.539848
    5       -9.139449
    6       -9.139449
    7       -8.030957
    8       -8.030957
    9        3.194296
   10        3.194296
   11        3.504776
   12        3.504776
 