       N       E                     dE             d eps       ncg     rms          rms(c)
DAV:   1     0.189175746824E+03    0.18918E+03   -0.10595E+04  5928   0.274E+03
DAV:   2    -0.927834516670E+01   -0.19845E+03   -0.17651E+03 10488   0.263E+02
DAV:   3    -0.382975886608E+02   -0.29019E+02   -0.28480E+02  7292   0.119E+02    0.725E+00
RMM:   4    -0.376702940464E+02    0.62729E+00   -0.93817E+00  5928   0.263E+01    0.420E+00
RMM:   5    -0.369245565013E+02    0.74574E+00   -0.27826E+00  5932   0.114E+01    0.719E-01
RMM:   6    -0.369265197401E+02   -0.19632E-02   -0.84917E-02  6370   0.202E+00    0.515E-01
RMM:   7    -0.369171421659E+02    0.93776E-02   -0.33006E-02  5945   0.158E+00    0.339E-01
RMM:   8    -0.369116663351E+02    0.54758E-02   -0.73740E-03  5931   0.568E-01    0.135E-01
RMM:   9    -0.369114519861E+02    0.21435E-03   -0.20583E-02  5928   0.850E-01    0.161E-01
RMM:  10    -0.369112824104E+02    0.16958E-03   -0.26328E-03  5928   0.369E-01    0.296E-02
RMM:  11    -0.369137713140E+02   -0.24889E-02   -0.74718E-04  5931   0.181E-01    0.470E-02
RMM:  12    -0.369142312070E+02   -0.45989E-03   -0.24054E-04  5938   0.103E-01    0.532E-03
RMM:  13    -0.369144877903E+02   -0.25658E-03   -0.54356E-05  6006   0.416E-02    0.450E-03
RMM:  14    -0.369145712710E+02   -0.83481E-04   -0.11143E-05  5949   0.189E-02    0.186E-03
RMM:  15    -0.369145810418E+02   -0.97708E-05   -0.16319E-06  6002   0.755E-03    0.126E-03
RMM:  16    -0.369145927460E+02   -0.11704E-04   -0.72347E-07  5934   0.530E-03    0.707E-04
RMM:  17    -0.369145979301E+02   -0.51841E-05   -0.45365E-08  6112   0.149E-03    0.792E-04
RMM:  18    -0.369145990710E+02   -0.11409E-05   -0.61949E-08  5928   0.185E-03    0.785E-05
RMM:  19    -0.369145998902E+02   -0.81920E-06   -0.11783E-08  6069   0.532E-04    0.296E-05
RMM:  20    -0.369145999512E+02   -0.60987E-07   -0.79801E-10  4462   0.131E-04    0.260E-05
RMM:  21    -0.369145999704E+02   -0.19183E-07   -0.30776E-10  4442   0.108E-04    0.332E-06
RMM:  22    -0.369145999704E+02    0.15348E-10   -0.28000E-12  3884   0.404E-05
   1 F= -.36914600E+02 E0= -.36914585E+02  d E =-.369146E+02
       N       E                     dE             d eps       ncg     rms          rms(c)
DAV:   1    -0.369145995357E+02    0.43467E-06   -0.37575E-05  6628   0.577E-02    0.121E-03
RMM:   2    -0.369145995609E+02   -0.25229E-07   -0.61804E-07  5954   0.693E-03    0.871E-04
RMM:   3    -0.369145995481E+02    0.12821E-07   -0.10432E-07  5984   0.261E-03    0.222E-04
RMM:   4    -0.369145995451E+02    0.29772E-08   -0.64573E-09  6047   0.634E-04    0.634E-05
RMM:   5    -0.369145995458E+02   -0.70668E-09   -0.45825E-10  4547   0.159E-04    0.283E-05
RMM:   6    -0.369145995458E+02    0.85265E-11   -0.58716E-11  3767   0.744E-05
   2 F= -.36914600E+02 E0= -.36914585E+02  d E =0.424526E-06
       N       E                     dE             d eps       ncg     rms          rms(c)
DAV:   1    -0.369146000029E+02   -0.45711E-06   -0.24217E-05  6664   0.464E-02    0.976E-04
RMM:   2    -0.369146000160E+02   -0.13029E-07   -0.38359E-07  5944   0.556E-03    0.700E-04
RMM:   3    -0.369146000004E+02    0.15570E-07   -0.66570E-08  5971   0.208E-03    0.171E-04
RMM:   4    -0.369145999999E+02    0.48317E-09   -0.39935E-09  6032   0.505E-04    0.504E-05
RMM:   5    -0.369145999994E+02    0.56173E-09   -0.30443E-10  4252   0.130E-04    0.235E-05
RMM:   6    -0.369145999994E+02   -0.56161E-10   -0.41573E-11  3725   0.651E-05
   3 F= -.36914600E+02 E0= -.36914585E+02  d E =-.453589E-06
       N       E                     dE             d eps       ncg     rms          rms(c)
DAV:   1    -0.369145999987E+02    0.68439E-09    0.56189E-09  5016   0.975E-05    0.226E-06
RMM:   2    -0.369145999991E+02   -0.45588E-09    0.40620E-13  2940   0.287E-05    0.141E-06
RMM:   3    -0.369145999993E+02   -0.20509E-09   -0.28569E-12  2772   0.300E-05    0.148E-07
RMM:   4    -0.369145999990E+02    0.32583E-09   -0.36072E-12  2495   0.269E-05    0.248E-07
RMM:   5    -0.369145999992E+02   -0.23442E-09   -0.39874E-12  2326   0.241E-05    0.287E-07
RMM:   6    -0.369145999992E+02    0.20123E-10    0.67064E-13  2176   0.222E-05
   4 F= -.36914600E+02 E0= -.36914585E+02  d E =0.191108E-09
       N       E                     dE             d eps       ncg     rms          rms(c)
DAV:   1    -0.369145999986E+02    0.65575E-09    0.56908E-09  4520   0.528E-05    0.529E-07
RMM:   2    -0.369145999991E+02   -0.48431E-09    0.84665E-14  1531   0.146E-05    0.324E-07
RMM:   3    -0.369145999993E+02   -0.19804E-09    0.38864E-13  1468   0.145E-05    0.157E-08
RMM:   4    -0.369145999993E+02   -0.79581E-12   -0.62989E-13  1422   0.144E-05    0.147E-08
RMM:   5    -0.369145999993E+02   -0.18645E-10    0.24363E-13  1386   0.142E-05
   5 F= -.36914600E+02 E0= -.36914585E+02  d E =-.661657E-10
