gr                                      
           1
     4.265674    0.000000    0.000000
     0.000000    2.491850    0.000000
     0.000000    0.000000   19.835315
   C 
   4
Direct configuration=     1
   0.00026297  0.00000000  0.00000000
   0.16640370  0.50000000  0.00000000
   0.50026297  0.50000000  0.00000000
   0.66640370  0.00000000  0.00000000
Direct configuration=     2
   0.00024936  0.00000000  0.00000000
   0.16641730  0.50000000 -0.00000000
   0.50024936  0.50000000  0.00000000
   0.66641730  0.00000000 -0.00000000
Direct configuration=     3
   0.00026029  0.00000000  0.00000000
   0.16640638  0.50000000 -0.00000000
   0.50026029  0.50000000  0.00000000
   0.66640638 -0.00000000 -0.00000000
Direct configuration=     4
   0.00026031 -0.00000000  0.00000000
   0.16640636  0.50000000 -0.00000000
   0.50026031  0.50000000  0.00000000
   0.66640636  0.00000000 -0.00000000
Direct configuration=     5
   0.00026030 -0.00000000  0.00000000
   0.16640637  0.50000000 -0.00000000
   0.50026030  0.50000000  0.00000000
   0.66640637  0.00000000 -0.00000000
