    4    4  400    1
  0.5270948E+02  0.4258694E-09  0.2516278E-09  0.1967495E-08  0.5000000E-15
  1.000000000000000E-004
  CAR 
 gr                                      
     16    247     12
 
  0.0000000E+00  0.0000000E+00  0.0000000E+00  0.1157407E-02
    1      -22.116770
    2      -16.768974
    3      -15.885795
    4      -10.253246
    5       -9.414067
    6       -5.954003
    7       -5.747579
    8       -4.946827
    9       -1.126542
   10        0.540340
   11        1.339104
   12        1.730307
 
  0.4166667E-01  0.0000000E+00  0.0000000E+00  0.2314815E-02
    1      -22.106421
    2      -16.958096
    3      -15.681605
    4      -10.240948
    5       -9.403700
    6       -5.977495
    7       -5.788298
    8       -5.016188
    9       -1.042125
   10        0.554366
   11        1.353280
   12        1.744660
 
  0.8333333E-01  0.0000000E+00  0.0000000E+00  0.2314815E-02
    1      -22.075379
    2      -17.318598
    3      -15.275990
    4      -10.204073
    5       -9.372649
    6       -6.046624
    7       -5.908940
    8       -5.207595
    9       -0.805727
   10        0.596442
   11        1.395803
   12        1.787721
 
  0.1250000E+00  0.0000000E+00  0.0000000E+00  0.2314815E-02
    1      -22.023664
    2      -17.708303
    3      -14.811403
    4      -10.142678
    5       -9.321066
    6       -6.157596
    7       -6.105191
    8       -5.484744
    9       -0.454182
   10        0.666565
   11        1.466662
   12        1.859489
 
  0.1666667E+00  0.0000000E+00  0.0000000E+00  0.2314815E-02
    1      -21.951308
    2      -18.095947
    3      -14.319582
    4      -10.056860
    5       -9.249208
    6       -6.370537
    7       -6.304785
    8       -5.812828
    9       -0.023189
   10        0.764727
   11        1.565837
   12        1.959963
 
  0.2083333E+00  0.0000000E+00  0.0000000E+00  0.2314815E-02
    1      -21.858364
    2      -18.472629
    3      -13.810105
    4       -9.946760
    5       -9.157447
    6       -6.697073
    7       -6.481529
    8       -6.166767
    9        0.460916
   10        0.890916
   11        1.693298
   12        2.089143
 
  0.2500000E+00  0.0000000E+00  0.0000000E+00  0.2314815E-02
    1      -21.744894
    2      -18.834817
    3      -13.287404
    4       -9.812566
    5       -9.046283
    6       -7.076285
    7       -6.680856
    8       -6.530269
    9        0.980192
   10        1.045109
   11        1.849000
   12        2.247025
 
  0.2916667E+00  0.0000000E+00  0.0000000E+00  0.2314815E-02
    1      -21.610979
    2      -19.180734
    3      -12.754396
    4       -9.654519
    5       -8.916359
    6       -7.499679
    7       -6.896044
    8       -6.892944
    9        1.227275
   10        1.522178
   11        2.032877
   12        2.433605
 
  0.3333333E+00  0.0000000E+00  0.0000000E+00  0.2314815E-02
    1      -21.456715
    2      -19.509326
    3      -12.213551
    4       -9.472928
    5       -8.768482
    6       -7.959212
    7       -7.248046
    8       -7.120959
    9        1.437369
   10        2.077521
   11        2.244828
   12        2.648873
 
  0.3750000E+00  0.0000000E+00  0.0000000E+00  0.2314815E-02
    1      -21.282216
    2      -19.819890
    3      -11.667300
    4       -9.268176
    5       -8.603655
    6       -8.447535
    7       -7.591057
    8       -7.350205
    9        1.675331
   10        2.484682
   11        2.638109
   12        2.892816
 
  0.4166667E+00  0.0000000E+00  0.0000000E+00  0.2314815E-02
    1      -21.087618
    2      -20.111908
    3      -11.118240
    4       -9.040742
    5       -8.958093
    6       -8.423107
    7       -7.918847
    8       -7.579155
    9        1.941076
   10        2.752102
   11        3.165403
   12        3.193200
 
  0.4583333E+00  0.0000000E+00  0.0000000E+00  0.2314815E-02
    1      -20.873081
    2      -20.384982
    3      -10.569258
    4       -9.485129
    5       -8.791226
    6       -8.229173
    7       -8.228346
    8       -7.803906
    9        2.234478
   10        2.903263
   11        3.046199
   12        3.466630
 
  0.5000000E+00  0.0000000E+00  0.0000000E+00  0.1157407E-02
    1      -20.638794
    2      -20.638794
    3      -10.023632
    4      -10.023632
    5       -8.520382
    6       -8.520382
    7       -8.021202
    8       -8.021202
    9        2.555336
   10        2.555336
   11        3.363087
   12        3.363087
 
  0.0000000E+00  0.2777778E-01  0.0000000E+00  0.2314815E-02
    1      -22.103627
    2      -16.757644
    3      -15.875161
    4      -10.237626
    5       -9.472935
    6       -6.008199
    7       -5.779392
    8       -4.930899
    9       -1.132263
   10        0.558127
   11        1.357144
   12        1.748570
 
  0.4166667E-01  0.2777778E-01  0.0000000E+00  0.4629630E-02
    1      -22.093279
    2      -16.946646
    3      -15.671151
    4      -10.225333
    5       -9.462540
    6       -6.035022
    7       -5.816059
    8       -5.000431
    9       -1.047804
   10        0.572154
   11        1.371318
   12        1.762924
 
  0.8333333E-01  0.2777778E-01  0.0000000E+00  0.4629630E-02
    1      -22.062241
    2      -17.306934
    3      -15.265929
    4      -10.188472
    5       -9.431405
    6       -6.115964
    7       -5.922857
    8       -5.192221
    9       -0.811411
   10        0.614233
   11        1.413838
   12        1.805985
 
  0.1250000E+00  0.2777778E-01  0.0000000E+00  0.4629630E-02
    1      -22.010532
    2      -17.696430
    3      -14.801860
    4      -10.127099
    5       -9.379675
    6       -6.255692
    7       -6.087351
    8       -5.469751
    9       -0.460133
   10        0.684363
   11        1.484692
   12        1.877754
 
  0.1666667E+00  0.2777778E-01  0.0000000E+00  0.4629630E-02
    1      -21.938188
    2      -18.083888
    3      -14.310673
    4      -10.041313
    5       -9.307599
    6       -6.469396
    7       -6.282639
    8       -5.798104
    9       -0.029779
   10        0.782534
   11        1.583860
   12        1.978230
 
  0.2083333E+00  0.2777778E-01  0.0000000E+00  0.4629630E-02
    1      -21.845258
    2      -18.460407
    3      -13.801964
    4       -9.931253
    5       -9.215536
    6       -6.764245
    7       -6.487380
    8       -6.152191
    9        0.453302
   10        0.908733
   11        1.711311
   12        2.107412
 
  0.2500000E+00  0.2777778E-01  0.0000000E+00  0.4629630E-02
    1      -21.731805
    2      -18.822453
    3      -13.280191
    4       -9.797107
    5       -9.103968
    6       -7.124742
    7       -6.701878
    8       -6.515744
    9        0.971204
   10        1.062939
   11        1.867002
   12        2.265297
 
  0.2916667E+00  0.2777778E-01  0.0000000E+00  0.4629630E-02
    1      -21.597911
    2      -19.168249
    3      -12.748307
    4       -9.639119
    5       -8.973513
    6       -7.535429
    7       -6.926550
    8       -6.878403
    9        1.245118
   10        1.511510
   11        2.050868
   12        2.451881
 
  0.3333333E+00  0.2777778E-01  0.0000000E+00  0.4629630E-02
    1      -21.443673
    2      -19.496737
    3      -12.208826
    4       -9.457595
    5       -8.824949
    6       -7.985486
    7       -7.233447
    8       -7.158111
    9        1.455228
   10        2.064934
   11        2.262808
   12        2.667155
 
  0.3750000E+00  0.2777778E-01  0.0000000E+00  0.4629630E-02
    1      -21.269205
    2      -19.807210
    3      -11.664237
    4       -9.252919
    5       -8.659239
    6       -8.466425
    7       -7.576375
    8       -7.392308
    9        1.693207
   10        2.502657
   11        2.623514
   12        2.911105
 
  0.4166667E+00  0.2777778E-01  0.0000000E+00  0.4629630E-02
    1      -21.074643
    2      -20.099150
    3      -11.117208
    4       -9.025570
    5       -8.971118
    6       -8.477564
    7       -7.904067
    8       -7.625060
    9        1.958974
   10        2.770083
   11        3.177218
   12        3.183704
 
  0.4583333E+00  0.2777778E-01  0.0000000E+00  0.4629630E-02
    1      -20.860148
    2      -20.372157
    3      -10.570719
    4       -9.493451
    5       -8.776146
    6       -8.281365
    7       -8.214292
    8       -7.852774
    9        2.252408
   10        2.921353
   11        3.064215
   12        3.484942
 
  0.5000000E+00  0.2777778E-01  0.0000000E+00  0.2314815E-02
    1      -20.625911
    2      -20.625911
    3      -10.028163
    4      -10.028163
    5       -8.505399
    6       -8.505399
    7       -8.072394
    8       -8.072394
    9        2.573318
   10        2.573318
   11        3.381127
   12        3.381128
 
  0.0000000E+00  0.5555556E-01  0.0000000E+00  0.2314815E-02
    1      -22.064208
    2      -16.723658
    3      -15.843458
    4      -10.190801
    5       -9.644720
    6       -6.166553
    7       -5.873861
    8       -4.883134
    9       -1.150219
   10        0.611493
   11        1.411255
   12        1.803361
 
  0.4166667E-01  0.5555556E-01  0.0000000E+00  0.4629630E-02
    1      -22.053864
    2      -16.912318
    3      -15.639973
    4      -10.178521
    5       -9.634236
    6       -6.199909
    7       -5.901895
    8       -4.953194
    9       -1.065625
   10        0.625523
   11        1.425426
   12        1.817716
 
  0.8333333E-01  0.5555556E-01  0.0000000E+00  0.4629630E-02
    1      -22.022838
    2      -17.271973
    3      -15.235941
    4      -10.141700
    5       -9.602827
    6       -6.298206
    7       -5.985406
    8       -5.146165
    9       -0.829233
   10        0.667611
   11        1.467936
   12        1.860779
 
  0.1250000E+00  0.5555556E-01  0.0000000E+00  0.4629630E-02
    1      -21.971151
    2      -17.660842
    3      -14.773454
    4      -10.080395
    5       -9.550622
    6       -6.457534
    7       -6.121491
    8       -5.424862
    9       -0.478760
   10        0.737756
   11        1.538773
   12        1.932551
 
  0.1666667E+00  0.5555556E-01  0.0000000E+00  0.4629630E-02
    1      -21.898839
    2      -18.047737
    3      -14.284219
    4       -9.994704
    5       -9.477840
    6       -6.674488
    7       -6.303071
    8       -5.754037
    9       -0.050351
   10        0.835948
   11        1.637917
   12        2.033032
 
  0.2083333E+00  0.5555556E-01  0.0000000E+00  0.4629630E-02
    1      -21.805951
    2      -18.423766
    3      -13.777886
    4       -9.884767
    5       -9.384798
    6       -6.947311
    7       -6.518887
    8       -6.108570
    9        0.429617
   10        0.962175
   11        1.765339
   12        2.162220
 
  0.2500000E+00  0.5555556E-01  0.0000000E+00  0.4629630E-02
    1      -21.692551
    2      -18.785387
    3      -13.258998
    4       -9.750771
    5       -9.271915
    6       -7.274346
    7       -6.756274
    8       -6.472273
    9        0.943335
   10        1.116413
   11        1.920996
   12        2.320113
 
  0.2916667E+00  0.5555556E-01  0.0000000E+00  0.4629630E-02
    1      -21.558722
    2      -19.130815
    3      -12.730624
    4       -9.592961
    5       -9.139730
    6       -7.651665
    7       -7.004649
    8       -6.834878
    9        1.298628
   10        1.478526
   11        2.104824
   12        2.506707
 
  0.3333333E+00  0.5555556E-01  0.0000000E+00  0.4629630E-02
    1      -21.404561
    2      -19.458987
    3      -12.195428
    4       -9.411642
    5       -8.988917
    6       -8.072723
    7       -7.256690
    8       -7.189739
    9        1.508778
   10        2.026093
   11        2.316730
   12        2.721994
 
  0.3750000E+00  0.5555556E-01  0.0000000E+00  0.4629630E-02
    1      -21.230186
    2      -19.769187
    3      -11.656091
    4       -9.207198
    5       -8.820299
    6       -8.529773
    7       -7.532409
    8       -7.507443
    9        1.746802
   10        2.556557
   11        2.578465
   12        2.965963
 
  0.4166667E+00  0.5555556E-01  0.0000000E+00  0.4629630E-02
    1      -21.035733
    2      -20.060893
    3      -11.115530
    4       -9.015189
    5       -8.980106
    6       -8.634879
    7       -7.859805
    8       -7.753245
    9        2.012623
   10        2.824000
   11        3.127265
   12        3.238592
 
  0.4583333E+00  0.5555556E-01  0.0000000E+00  0.4629630E-02
    1      -20.821365
    2      -20.333697
    3      -10.577038
    4       -9.522073
    5       -8.730962
    6       -8.433867
    7       -8.169717
    8       -7.991152
    9        2.306131
   10        2.975444
   11        3.118241
   12        3.539983
 
  0.5000000E+00  0.5555556E-01  0.0000000E+00  0.2314815E-02
    1      -20.587278
    2      -20.587278
    3      -10.044411
    4      -10.044411
    5       -8.460514
    6       -8.460514
    7       -8.218713
    8       -8.218713
    9        2.627164
   10        2.627164
   11        3.435234
   12        3.435234
 
  0.0000000E+00  0.8333333E-01  0.0000000E+00  0.2314815E-02
    1      -21.998549
    2      -16.667027
    3      -15.791311
    4      -10.112868
    5       -9.916268
    6       -6.417617
    7       -6.028164
    8       -4.803591
    9       -1.182782
   10        0.700462
   11        1.501416
   12        1.894685
 
  0.4166667E-01  0.8333333E-01  0.0000000E+00  0.4629630E-02
    1      -21.988212
    2      -16.855177
    3      -15.588663
    4      -10.100611
    5       -9.905612
    6       -6.457041
    7       -6.046825
    8       -4.874588
    9       -1.097925
   10        0.714494
   11        1.515581
   12        1.909040
 
  0.8333333E-01  0.8333333E-01  0.0000000E+00  0.4629630E-02
    1      -21.957208
    2      -17.213809
    3      -15.186648
    4      -10.063859
    5       -9.873678
    6       -6.569020
    7       -6.107269
    8       -5.069638
    9       -0.861477
   10        0.756590
   11        1.558072
   12        1.952104
 
  0.1250000E+00  0.8333333E-01  0.0000000E+00  0.4629630E-02
    1      -21.905558
    2      -17.601634
    3      -14.726911
    4      -10.002670
    5       -9.820559
    6       -6.740893
    7       -6.216759
    8       -5.350366
    9       -0.512347
   10        0.826748
   11        1.628878
   12        2.023879
 
  0.1666667E+00  0.8333333E-01  0.0000000E+00  0.4629630E-02
    1      -21.833300
    2      -17.987585
    3      -14.241116
    4       -9.917142
    5       -9.746417
    6       -6.961635
    7       -6.377693
    8       -5.680952
    9       -0.087258
   10        0.924963
   11        1.727979
   12        2.124365
 
  0.2083333E+00  0.8333333E-01  0.0000000E+00  0.4629630E-02
    1      -21.740481
    2      -18.362786
    3      -13.739010
    4       -9.807414
    5       -9.651475
    6       -7.224222
    7       -6.585890
    8       -6.036235
    9        0.387383
   10        1.051220
   11        1.855346
   12        2.253561
 
  0.2500000E+00  0.8333333E-01  0.0000000E+00  0.4629630E-02
    1      -21.627170
    2      -18.723689
    3      -13.225307
    4       -9.673676
    5       -9.536028
    6       -7.525444
    7       -6.831673
    8       -6.400176
    9        0.893945
   10        1.205496
   11        2.010936
   12        2.411464
 
  0.2916667E+00  0.8333333E-01  0.0000000E+00  0.4629630E-02
    1      -21.493450
    2      -19.068498
    3      -12.703309
    4       -9.516171
    5       -9.400442
    6       -7.864858
    7       -7.101893
    8       -6.762671
    9        1.387756
   10        1.420387
   11        2.194692
   12        2.598071
 
  0.3333333E+00  0.8333333E-01  0.0000000E+00  0.4629630E-02
    1      -21.339419
    2      -19.396136
    3      -12.175991
    4       -9.335205
    5       -9.245156
    6       -8.242810
    7       -7.382792
    8       -7.117203
    9        1.597954
   10        1.957908
   11        2.406526
   12        2.813376
 
  0.3750000E+00  0.8333333E-01  0.0000000E+00  0.4629630E-02
    1      -21.165198
    2      -19.705877
    3      -11.646441
    4       -9.131160
    5       -9.070682
    6       -8.658119
    7       -7.662960
    8       -7.459416
    9        1.836031
   10        2.499439
   11        2.646302
   12        3.057367
 
  0.4166667E+00  0.8333333E-01  0.0000000E+00  0.4629630E-02
    1      -20.970927
    2      -19.997187
    3      -11.118107
    4       -9.106983
    5       -8.904511
    6       -8.877610
    7       -7.934810
    8       -7.786291
    9        2.101912
   10        2.913760
   11        3.038271
   12        3.330032
 
  0.4583333E+00  0.8333333E-01  0.0000000E+00  0.4629630E-02
    1      -20.756775
    2      -20.269652
    3      -10.594967
    4       -9.583640
    5       -8.666608
    6       -8.655850
    7       -8.194066
    8       -8.095660
    9        2.395499
   10        3.065168
   11        3.208197
   12        3.558351
 
  0.5000000E+00  0.8333333E-01  0.0000000E+00  0.2314815E-02
    1      -20.522939
    2      -20.522939
    3      -10.081673
    4      -10.081673
    5       -8.438445
    6       -8.438445
    7       -8.385919
    8       -8.385919
    9        2.716654
   10        2.716654
   11        3.525350
   12        3.525350
 
  0.0000000E+00  0.1111111E+00  0.0000000E+00  0.2314815E-02
    1      -21.906713
    2      -16.587774
    3      -15.719912
    4      -10.269159
    5      -10.003991
    6       -6.745679
    7       -6.237900
    8       -4.692370
    9       -1.233819
   10        0.825060
   11        1.627590
   12        2.022547
 
  0.4166667E-01  0.1111111E+00  0.0000000E+00  0.4629630E-02
    1      -21.896386
    2      -16.775347
    3      -15.518349
    4      -10.258210
    5       -9.991768
    6       -6.790053
    7       -6.247354
    8       -4.764811
    9       -1.148496
   10        0.839091
   11        1.641745
   12        2.036901
 
  0.8333333E-01  0.1111111E+00  0.0000000E+00  0.4629630E-02
    1      -21.865414
    2      -17.132619
    3      -15.119248
    4      -10.225375
    5       -9.955118
    6       -6.912821
    7       -6.284843
    8       -4.963027
    9       -0.911817
   10        0.881185
   11        1.684206
   12        2.079966
 
  0.1250000E+00  0.1111111E+00  0.0000000E+00  0.4629630E-02
    1      -21.813817
    2      -17.518982
    3      -14.663648
    4      -10.170683
    5       -9.894098
    6       -7.094630
    7       -6.365970
    8       -5.246793
    9       -0.564543
   10        0.951344
   11        1.754961
   12        2.151742
 
  0.1666667E+00  0.1111111E+00  0.0000000E+00  0.4629630E-02
    1      -21.741633
    2      -17.903591
    3      -14.183136
    4      -10.094179
    5       -9.808807
    6       -7.319902
    7       -6.499938
    8       -5.579441
    9       -0.144235
   10        1.049566
   11        1.853990
   12        2.252230
 
  0.2083333E+00  0.1111111E+00  0.0000000E+00  0.4629630E-02
    1      -21.648914
    2      -18.277610
    3      -13.687631
    4       -9.995914
    5       -9.699386
    6       -7.578547
    7       -6.687944
    8       -5.935786
    9        0.322697
   10        1.175841
   11        1.981264
   12        2.381431
 
  0.2500000E+00  0.1111111E+00  0.0000000E+00  0.4629630E-02
    1      -21.535728
    2      -18.637488
    3      -13.182160
    4       -9.875929
    5       -9.566025
    6       -7.864748
    7       -6.924853
    8       -6.300030
    9        0.818915
   10        1.330145
   11        2.136741
   12        2.539344
 
  0.2916667E+00  0.1111111E+00  0.0000000E+00  0.4629630E-02
    1      -21.402160
    2      -18.981412
    3      -12.670468
    4       -9.734234
    5       -9.408967
    6       -8.176172
    7       -7.200748
    8       -6.662318
    9        1.332738
   10        1.512440
   11        2.320364
   12        2.725964
 
  0.3333333E+00  0.1111111E+00  0.0000000E+00  0.4629630E-02
    1      -21.248314
    2      -19.308289
    3      -12.156135
    4       -9.570776
    5       -9.228518
    6       -8.513425
    7       -7.502346
    8       -7.016330
    9        1.722678
   10        1.855757
   11        2.532059
   12        2.941285
 
  0.3750000E+00  0.1111111E+00  0.0000000E+00  0.4629630E-02
    1      -21.074311
    2      -19.617374
    3      -11.643054
    4       -9.385405
    5       -9.025059
    6       -8.879061
    7       -7.814754
    8       -7.357845
    9        1.960798
   10        2.381423
   11        2.771712
   12        3.185299
 
  0.4166667E+00  0.1111111E+00  0.0000000E+00  0.4629630E-02
    1      -20.880299
    2      -19.908121
    3      -11.135711
    4       -9.275659
    5       -9.177839
    6       -8.799062
    7       -8.123943
    8       -7.683934
    9        2.226722
   10        2.904175
   11        3.039135
   12        3.457993
 
  0.4583333E+00  0.1111111E+00  0.0000000E+00  0.4629630E-02
    1      -20.666452
    2      -20.180102
    3      -10.639346
    4       -9.703569
    5       -8.947695
    6       -8.551114
    7       -8.419294
    8       -7.992490
    9        2.520358
   10        3.190227
   11        3.333851
   12        3.417999
 
  0.5000000E+00  0.1111111E+00  0.0000000E+00  0.2314815E-02
    1      -20.432973
    2      -20.432973
    3      -10.159902
    4      -10.159902
    5       -8.694696
    6       -8.694696
    7       -8.281948
    8       -8.281948
    9        2.841582
   10        2.841582
   11        3.651156
   12        3.651156
 
  0.0000000E+00  0.1388889E+00  0.0000000E+00  0.2314815E-02
    1      -21.788792
    2      -16.485928
    3      -15.631290
    4      -10.682872
    5       -9.864411
    6       -7.133891
    7       -6.497470
    8       -4.549610
    9       -1.308508
   10        0.985307
   11        1.789721
   12        2.186952
 
  0.4166667E-01  0.1388889E+00  0.0000000E+00  0.4629630E-02
    1      -21.778478
    2      -16.673028
    3      -15.430967
    4      -10.671433
    5       -9.852233
    6       -7.182423
    7       -6.497846
    8       -4.624178
    9       -1.222369
   10        0.999331
   11        1.803860
   12        2.201305
 
  0.8333333E-01  0.1388889E+00  0.0000000E+00  0.4629630E-02
    1      -21.747546
    2      -17.028685
    3      -15.035829
    4      -10.637085
    5       -9.815721
    6       -7.314353
    7       -6.512013
    8       -4.826967
    9       -0.985041
   10        1.041409
   11        1.846273
   12        2.244367
 
  0.1250000E+00  0.1388889E+00  0.0000000E+00  0.4629630E-02
    1      -21.696018
    2      -17.413164
    3      -14.586191
    4      -10.579733
    5       -9.754931
    6       -7.505049
    7       -6.562516
    8       -5.114999
    9       -0.640029
   10        1.111546
   11        1.916947
   12        2.316139
 
  0.1666667E+00  0.1388889E+00  0.0000000E+00  0.4629630E-02
    1      -21.623932
    2      -17.796007
    3      -14.113513
    4      -10.499195
    5       -9.669963
    6       -7.735627
    7       -6.664246
    8       -5.450449
    9       -0.226022
   10        1.209748
   11        2.015859
   12        2.416626
 
  0.2083333E+00  0.1388889E+00  0.0000000E+00  0.4629630E-02
    1      -21.531342
    2      -18.168461
    3      -13.628043
    4      -10.395168
    5       -9.560960
    6       -7.994064
    7       -6.822928
    8       -5.808165
    9        0.230664
   10        1.336010
   11        2.142978
   12        2.545827
 
  0.2500000E+00  0.1388889E+00  0.0000000E+00  0.4629630E-02
    1      -21.418318
    2      -18.526979
    3      -13.135396
    4      -10.267172
    5       -9.428112
    6       -8.272909
    7       -7.037407
    8       -6.172727
    9        0.713173
   10        1.490313
   11        2.298258
   12        2.703744
 
  0.2916667E+00  0.1388889E+00  0.0000000E+00  0.4629630E-02
    1      -21.284950
    2      -18.869731
    3      -12.640181
    4      -10.114476
    5       -9.271664
    6       -8.567933
    7       -7.301422
    8       -6.534646
    9        1.210356
   10        1.672619
   11        2.481641
   12        2.890373
 
  0.3333333E+00  0.1388889E+00  0.0000000E+00  0.4629630E-02
    1      -21.131342
    2      -19.195600
    3      -12.147149
    4       -9.936010
    5       -9.091923
    6       -8.877632
    7       -7.604883
    8       -6.887874
    9        1.714326
   10        1.882874
   11        2.693049
   12        3.105707
 
  0.3750000E+00  0.1388889E+00  0.0000000E+00  0.4629630E-02
    1      -20.957625
    2      -19.503819
    3      -11.661689
    4       -9.730313
    5       -9.203090
    6       -8.889268
    7       -7.934848
    8       -7.228376
    9        2.121010
   10        2.219094
   11        2.932386
   12        3.349739
 
  0.4166667E+00  0.1388889E+00  0.0000000E+00  0.4629630E-02
    1      -20.763952
    2      -19.793823
    3      -11.189956
    4       -9.547734
    5       -9.495664
    6       -8.664168
    7       -8.276487
    8       -7.553347
    9        2.386946
   10        2.719813
   11        3.199521
   12        3.622457
 
  0.4583333E+00  0.1388889E+00  0.0000000E+00  0.4629630E-02
    1      -20.550504
    2      -20.065168
    3      -10.738481
    4       -9.916342
    5       -9.230665
    6       -8.614533
    7       -8.417205
    8       -7.860759
    9        2.680584
   10        3.212349
   11        3.350459
   12        3.494286
 
  0.5000000E+00  0.1388889E+00  0.0000000E+00  0.2314815E-02
    1      -20.317493
    2      -20.317493
    3      -10.312947
    4      -10.312947
    5       -8.935617
    6       -8.935617
    7       -8.149099
    8       -8.149099
    9        3.001807
   10        3.001807
   11        3.692929
   12        3.692956
 
  0.0000000E+00  0.1666667E+00  0.0000000E+00  0.2314815E-02
    1      -21.644906
    2      -16.361531
    3      -15.528856
    4      -11.136682
    5       -9.694445
    6       -7.566485
    7       -6.800504
    8       -4.375499
    9       -1.412966
   10        1.181203
   11        1.987729
   12        2.387904
 
  0.4166667E-01  0.1666667E+00  0.0000000E+00  0.4629630E-02
    1      -21.634610
    2      -16.548545
    3      -15.329795
    4      -11.124407
    5       -9.682328
    6       -7.618731
    7       -6.791872
    8       -4.453179
    9       -1.325375
   10        1.195216
   11        2.001843
   12        2.402255
 
  0.8333333E-01  0.1666667E+00  0.0000000E+00  0.4629630E-02
    1      -21.603728
    2      -16.902456
    3      -14.940022
    4      -11.087469
    5       -9.645995
    6       -7.758984
    7       -6.782361
    8       -4.662483
    9       -1.086502
   10        1.237259
   11        2.044179
   12        2.445311
 
  0.1250000E+00  0.1666667E+00  0.0000000E+00  0.4629630E-02
    1      -21.552285
    2      -17.284613
    3      -14.499055
    4      -11.025512
    5       -9.585507
    6       -7.958153
    7       -6.800480
    8       -4.956342
    9       -0.743900
   10        1.307346
   11        2.114721
   12        2.517074
 
  0.1666667E+00  0.1666667E+00  0.0000000E+00  0.4629630E-02
    1      -21.480320
    2      -17.665216
    3      -14.038219
    4      -10.937883
    5       -9.500964
    6       -8.194691
    7       -6.866052
    8       -5.295436
    9       -0.337675
   10        1.405490
   11        2.213438
   12        2.617550
 
  0.2083333E+00  0.1666667E+00  0.0000000E+00  0.4629630E-02
    1      -21.387889
    2      -18.035671
    3      -13.568418
    4      -10.823534
    5       -9.392510
    6       -8.455246
    7       -6.988789
    8       -5.654799
    9        0.106175
   10        1.531696
   11        2.340288
   12        2.746743
 
  0.2500000E+00  0.1666667E+00  0.0000000E+00  0.4629630E-02
    1      -21.275067
    2      -18.392451
    3      -13.096445
    4      -10.680889
    5       -9.260338
    6       -8.731451
    7       -7.171043
    8       -6.019600
    9        0.571577
   10        1.685954
   11        2.495209
   12        2.904655
 
  0.2916667E+00  0.1666667E+00  0.0000000E+00  0.4629630E-02
    1      -21.141945
    2      -18.733707
    3      -12.628559
    4      -10.507715
    5       -9.104695
    6       -9.018036
    7       -7.409738
    8       -6.380869
    9        1.048182
   10        1.868228
   11        2.678110
   12        3.091285
 
  0.3333333E+00  0.1666667E+00  0.0000000E+00  0.4629630E-02
    1      -20.988636
    2      -19.058292
    3      -12.171525
    4      -10.301126
    5       -9.312005
    6       -8.925889
    7       -7.697744
    8       -6.732927
    9        1.528839
   10        2.078463
   11        2.888861
   12        3.306627
 
  0.3750000E+00  0.1666667E+00  0.0000000E+00  0.4629630E-02
    1      -20.815276
    2      -19.365413
    3      -11.732589
    4      -10.058047
    5       -9.612397
    6       -8.724300
    7       -8.024957
    8       -7.071988
    9        2.008251
   10        2.316581
   11        3.127231
   12        3.550672
 
  0.4166667E+00  0.1666667E+00  0.0000000E+00  0.4629630E-02
    1      -20.622028
    2      -19.654476
    3      -11.318347
    4       -9.920343
    5       -9.776611
    6       -8.500396
    7       -8.379077
    8       -7.395405
    9        2.482221
   10        2.582490
   11        3.392601
   12        3.823407
 
  0.4583333E+00  0.1666667E+00  0.0000000E+00  0.4629630E-02
    1      -20.409080
    2      -19.925018
    3      -10.932586
    4      -10.239224
    5       -9.458501
    6       -8.746104
    7       -8.254750
    8       -7.701250
    9        2.876082
   10        2.947136
   11        3.545779
   12        3.676307
 
  0.5000000E+00  0.1666667E+00  0.0000000E+00  0.2314815E-02
    1      -20.176656
    2      -20.176656
    3      -10.574505
    4      -10.574505
    5       -9.110897
    6       -9.110897
    7       -7.988073
    8       -7.988073
    9        3.197230
   10        3.197230
   11        3.398863
   12        3.398863
 