gr                                      
           1
     4.258694    0.000000    0.000000
     0.000000    2.516278    0.000000
     0.000000    0.000000   19.674954
   C 
   4
Direct configuration=     1
   0.00051919  0.00000000  0.00000000
   0.16614747  0.50000000  0.00000000
   0.50051919  0.50000000  0.00000000
   0.66614747  0.00000000  0.00000000
Direct configuration=     2
   0.00049419 -0.00000000  0.00000000
   0.16617248  0.50000000 -0.00000000
   0.50049419  0.50000000  0.00000000
   0.66617248  0.00000000 -0.00000000
Direct configuration=     3
   0.00051423 -0.00000000  0.00000000
   0.16615244  0.50000000 -0.00000000
   0.50051423  0.50000000  0.00000000
   0.66615244  0.00000000 -0.00000000
Direct configuration=     4
   0.00051425 -0.00000000 -0.00000000
   0.16615242  0.50000000  0.00000000
   0.50051425  0.50000000 -0.00000000
   0.66615242  0.00000000  0.00000000
Direct configuration=     5
   0.00051424 -0.00000000 -0.00000000
   0.16615243  0.50000000  0.00000000
   0.50051424  0.50000000 -0.00000000
   0.66615243  0.00000000  0.00000000
