    4    4  400    1
  0.5270948E+02  0.4380952E-09  0.2457095E-09  0.1958656E-08  0.5000000E-15
  1.000000000000000E-004
  CAR 
 gr                                      
     16    247     12
 
  0.0000000E+00  0.0000000E+00  0.0000000E+00  0.1157407E-02
    1      -22.079251
    2      -17.259390
    3      -15.831325
    4      -10.224293
    5       -8.801893
    6       -6.008212
    7       -5.726706
    8       -5.337184
    9       -1.186777
   10        0.544970
   11        1.343033
   12        1.736550
 
  0.4166667E-01  0.0000000E+00  0.0000000E+00  0.2314815E-02
    1      -22.069497
    2      -17.377261
    3      -15.698478
    4      -10.212720
    5       -8.792454
    6       -6.052513
    7       -5.746753
    8       -5.395835
    9       -1.112412
   10        0.558162
   11        1.356418
   12        1.750104
 
  0.8333333E-01  0.0000000E+00  0.0000000E+00  0.2314815E-02
    1      -22.040240
    2      -17.650218
    3      -15.380664
    4      -10.178020
    5       -8.764187
    6       -6.183301
    7       -5.805852
    8       -5.559964
    9       -0.901295
   10        0.597746
   11        1.396569
   12        1.790766
 
  0.1250000E+00  0.0000000E+00  0.0000000E+00  0.2314815E-02
    1      -21.991501
    2      -17.980198
    3      -14.976176
    4      -10.120250
    5       -8.717244
    6       -6.394641
    7       -5.901042
    8       -5.802384
    9       -0.581089
   10        0.663744
   11        1.463470
   12        1.858542
 
  0.1666667E+00  0.0000000E+00  0.0000000E+00  0.2314815E-02
    1      -21.923315
    2      -18.324740
    3      -14.527865
    4      -10.039510
    5       -8.651885
    6       -6.677857
    7       -6.094721
    8       -6.027869
    9       -0.180968
   10        0.756178
   11        1.557094
   12        1.953434
 
  0.2083333E+00  0.0000000E+00  0.0000000E+00  0.2314815E-02
    1      -21.835733
    2      -18.667438
    3      -14.052695
    4       -9.935941
    5       -8.568485
    6       -7.022835
    7       -6.414716
    8       -6.180963
    9        0.275648
   10        0.875067
   11        1.677400
   12        2.075447
 
  0.2500000E+00  0.0000000E+00  0.0000000E+00  0.2314815E-02
    1      -21.728818
    2      -19.001121
    3      -13.558585
    4       -9.809734
    5       -8.467544
    6       -7.419171
    7       -6.746880
    8       -6.354578
    9        0.771708
   10        1.020410
   11        1.824318
   12        2.224582
 
  0.2916667E+00  0.0000000E+00  0.0000000E+00  0.2314815E-02
    1      -21.602658
    2      -19.322185
    3      -13.050091
    4       -9.661138
    5       -8.349703
    6       -7.856985
    7       -7.080839
    8       -6.543047
    9        1.192193
   10        1.294772
   11        1.997742
   12        2.400838
 
  0.3333333E+00  0.0000000E+00  0.0000000E+00  0.2314815E-02
    1      -21.457355
    2      -19.628593
    3      -12.530440
    4       -9.490469
    5       -8.327361
    6       -8.215767
    7       -7.409634
    8       -6.741073
    9        1.390385
   10        1.835069
   11        2.197490
   12        2.604210
 
  0.3750000E+00  0.0000000E+00  0.0000000E+00  0.2314815E-02
    1      -21.293032
    2      -19.919080
    3      -12.002362
    4       -9.298124
    5       -8.822512
    6       -8.066726
    7       -7.728509
    8       -6.943897
    9        1.614940
   10        2.383436
   11        2.423217
   12        2.834691
 
  0.4166667E+00  0.0000000E+00  0.0000000E+00  0.2314815E-02
    1      -21.109842
    2      -20.192794
    3      -11.468491
    4       -9.335761
    5       -9.084599
    6       -8.034135
    7       -7.903790
    8       -7.147355
    9        1.865791
   10        2.674151
   11        2.925753
   12        3.092269
 
  0.4583333E+00  0.0000000E+00  0.0000000E+00  0.2314815E-02
    1      -20.907969
    2      -20.449130
    3      -10.931595
    4       -9.861437
    5       -8.850522
    6       -8.324116
    7       -7.728428
    8       -7.347871
    9        2.142853
   10        2.775103
   11        2.948031
   12        3.368635
 
  0.5000000E+00  0.0000000E+00  0.0000000E+00  0.1157407E-02
    1      -20.687638
    2      -20.687638
    3      -10.394742
    4      -10.394742
    5       -8.596688
    6       -8.596688
    7       -7.542411
    8       -7.542411
    9        2.446011
   10        2.446011
   11        3.233814
   12        3.233814
 
  0.0000000E+00  0.2777778E-01  0.0000000E+00  0.2314815E-02
    1      -22.065421
    2      -17.247384
    3      -15.819532
    4      -10.207880
    5       -8.865227
    6       -6.034273
    7       -5.785782
    8       -5.320497
    9       -1.189205
   10        0.563707
   11        1.361959
   12        1.755715
 
  0.4166667E-01  0.2777778E-01  0.0000000E+00  0.4629630E-02
    1      -22.055668
    2      -17.365136
    3      -15.686847
    4      -10.196310
    5       -8.855776
    6       -6.079280
    7       -5.804518
    8       -5.379261
    9       -1.114828
   10        0.576899
   11        1.375343
   12        1.769268
 
  0.8333333E-01  0.2777778E-01  0.0000000E+00  0.4629630E-02
    1      -22.026415
    2      -17.637872
    3      -15.369388
    4      -10.161622
    5       -8.827474
    6       -6.210897
    7       -5.861085
    8       -5.543658
    9       -0.903749
   10        0.616483
   11        1.415492
   12        1.809931
 
  0.1250000E+00  0.2777778E-01  0.0000000E+00  0.4629630E-02
    1      -21.977684
    2      -17.967639
    3      -14.965341
    4      -10.103871
    5       -8.780470
    6       -6.421597
    7       -5.954394
    8       -5.786367
    9       -0.583764
   10        0.682481
   11        1.482390
   12        1.877706
 
  0.1666667E+00  0.2777778E-01  0.0000000E+00  0.4629630E-02
    1      -21.909509
    2      -18.311996
    3      -14.517544
    4      -10.023158
    5       -8.715021
    6       -6.702530
    7       -6.080528
    8       -6.078929
    9       -0.184134
   10        0.774918
   11        1.576010
   12        1.972600
 
  0.2083333E+00  0.2777778E-01  0.0000000E+00  0.4629630E-02
    1      -21.821941
    2      -18.654535
    3      -14.042974
    4       -9.919623
    5       -8.631493
    6       -7.044127
    7       -6.399065
    8       -6.233884
    9        0.271700
   10        0.893809
   11        1.696310
   12        2.094614
 
  0.2500000E+00  0.2777778E-01  0.0000000E+00  0.4629630E-02
    1      -21.715046
    2      -18.988080
    3      -13.549565
    4       -9.793459
    5       -8.530380
    6       -7.436592
    7       -6.731296
    8       -6.408353
    9        0.766702
   10        1.039157
   11        1.843223
   12        2.243750
 
  0.2916667E+00  0.2777778E-01  0.0000000E+00  0.4629630E-02
    1      -21.588908
    2      -19.309024
    3      -13.041893
    4       -9.644913
    5       -8.412315
    6       -7.870485
    7       -7.065264
    8       -6.597967
    9        1.210947
   10        1.288469
   11        2.016644
   12        2.420009
 
  0.3333333E+00  0.2777778E-01  0.0000000E+00  0.4629630E-02
    1      -21.443632
    2      -19.615329
    3      -12.523211
    4       -9.474301
    5       -8.337158
    6       -8.278090
    7       -7.394029
    8       -6.797227
    9        1.409146
   10        1.827296
   11        2.216391
   12        2.623384
 
  0.3750000E+00  0.2777778E-01  0.0000000E+00  0.4629630E-02
    1      -21.279342
    2      -19.905726
    3      -11.996274
    4       -9.282018
    5       -8.828955
    6       -8.128683
    7       -7.712850
    8       -7.001250
    9        1.633710
   10        2.374196
   11        2.442124
   12        2.853869
 
  0.4166667E+00  0.2777778E-01  0.0000000E+00  0.4629630E-02
    1      -21.096189
    2      -20.179362
    3      -11.463751
    4       -9.339245
    5       -9.068563
    6       -8.018407
    7       -7.965289
    8       -7.205806
    9        1.884571
   10        2.693074
   11        2.915861
   12        3.111453
 
  0.4583333E+00  0.2777778E-01  0.0000000E+00  0.4629630E-02
    1      -20.894360
    2      -20.435630
    3      -10.928444
    4       -9.862358
    5       -8.834561
    6       -8.308312
    7       -7.789359
    8       -7.407287
    9        2.161646
   10        2.793939
   11        2.966965
   12        3.369268
 
  0.5000000E+00  0.2777778E-01  0.0000000E+00  0.2314815E-02
    1      -20.674080
    2      -20.674080
    3      -10.393465
    4      -10.393465
    5       -8.580805
    6       -8.580805
    7       -7.602653
    8       -7.602653
    9        2.464820
   10        2.464820
   11        3.252331
   12        3.252331
 
  0.0000000E+00  0.5555556E-01  0.0000000E+00  0.2314815E-02
    1      -22.023939
    2      -17.211367
    3      -15.784294
    4      -10.158674
    5       -9.050094
    6       -6.112066
    7       -5.958148
    8       -5.270455
    9       -1.197294
   10        0.619916
   11        1.418729
   12        1.813208
 
  0.4166667E-01  0.5555556E-01  0.0000000E+00  0.4629630E-02
    1      -22.014190
    2      -17.328770
    3      -15.652093
    4      -10.147117
    5       -9.040605
    6       -6.161946
    7       -5.970233
    8       -5.329570
    9       -1.122876
   10        0.633108
   11        1.432111
   12        1.826762
 
  0.8333333E-01  0.5555556E-01  0.0000000E+00  0.4629630E-02
    1      -21.984952
    2      -17.600851
    3      -15.335703
    4      -10.112463
    5       -9.012184
    6       -6.298859
    7       -6.016475
    8       -5.494792
    9       -0.911906
   10        0.672691
   11        1.472253
   12        1.867424
 
  0.1250000E+00  0.5555556E-01  0.0000000E+00  0.4629630E-02
    1      -21.936244
    2      -17.929983
    3      -14.932991
    4      -10.054771
    5       -8.964975
    6       -6.508344
    7       -6.103535
    8       -5.738387
    9       -0.592595
   10        0.738690
   11        1.539140
   12        1.935200
 
  0.1666667E+00  0.5555556E-01  0.0000000E+00  0.4629630E-02
    1      -21.868103
    2      -18.273783
    3      -14.486760
    4       -9.974140
    5       -8.899219
    6       -6.782155
    7       -6.227921
    8       -6.031638
    9       -0.194466
   10        0.831128
   11        1.632747
   12        2.030095
 
  0.2083333E+00  0.5555556E-01  0.0000000E+00  0.4629630E-02
    1      -21.780580
    2      -18.615841
    3      -14.014023
    4       -9.870710
    5       -8.815267
    6       -7.112993
    7       -6.382722
    8       -6.352201
    9        0.258976
   10        0.950025
   11        1.753031
   12        2.152111
 
  0.2500000E+00  0.5555556E-01  0.0000000E+00  0.4629630E-02
    1      -21.673740
    2      -18.948971
    3      -13.522763
    4       -9.744674
    5       -8.713585
    6       -7.493108
    7       -6.684629
    8       -6.560498
    9        0.750742
   10        1.095383
   11        1.899928
   12        2.301252
 
  0.2916667E+00  0.5555556E-01  0.0000000E+00  0.4629630E-02
    1      -21.547672
    2      -19.269557
    3      -13.017621
    4       -9.596279
    5       -8.594775
    6       -7.914499
    7       -7.018623
    8       -6.754273
    9        1.267186
   10        1.268533
   11        2.073336
   12        2.477516
 
  0.3333333E+00  0.5555556E-01  0.0000000E+00  0.4629630E-02
    1      -21.402477
    2      -19.575551
    3      -12.501924
    4       -9.425840
    5       -8.459593
    6       -8.369380
    7       -7.347296
    8       -6.957886
    9        1.465402
   10        1.802835
   11        2.273081
   12        2.680900
 
  0.3750000E+00  0.5555556E-01  0.0000000E+00  0.4629630E-02
    1      -21.238283
    2      -19.865678
    3      -11.978520
    4       -9.233752
    5       -8.850528
    6       -8.308971
    7       -7.665949
    8       -7.166060
    9        1.689985
   10        2.345129
   11        2.498832
   12        2.911396
 
  0.4166667E+00  0.5555556E-01  0.0000000E+00  0.4629630E-02
    1      -21.055244
    2      -20.139080
    3      -11.450179
    4       -9.351462
    5       -9.020509
    6       -8.144055
    7       -7.971294
    8       -7.374362
    9        1.940869
   10        2.749833
   11        2.884143
   12        3.168994
 
  0.4583333E+00  0.5555556E-01  0.0000000E+00  0.4629630E-02
    1      -20.853545
    2      -20.395145
    3      -10.919825
    4       -9.866496
    5       -8.786734
    6       -8.260965
    7       -7.966242
    8       -7.579104
    9        2.217969
   10        2.850354
   11        3.023760
   12        3.364355
 
  0.5000000E+00  0.5555556E-01  0.0000000E+00  0.2314815E-02
    1      -20.633418
    2      -20.633418
    3      -10.390702
    4      -10.390702
    5       -8.533216
    6       -8.533216
    7       -7.777235
    8       -7.777235
    9        2.521180
   10        2.521180
   11        3.307623
   12        3.307623
 
  0.0000000E+00  0.8333333E-01  0.0000000E+00  0.2314815E-02
    1      -21.954840
    2      -17.151354
    3      -15.726054
    4      -10.076783
    5       -9.342539
    6       -6.240422
    7       -6.230746
    8       -5.187124
    9       -1.213460
   10        0.713597
   11        1.513320
   12        1.909031
 
  0.4166667E-01  0.8333333E-01  0.0000000E+00  0.4629630E-02
    1      -21.945099
    2      -17.268192
    3      -15.594655
    4      -10.065245
    5       -9.332971
    6       -6.325035
    7       -6.205234
    8       -5.246858
    9       -1.138960
   10        0.726787
   11        1.526698
   12        1.922584
 
  0.8333333E-01  0.8333333E-01  0.0000000E+00  0.4629630E-02
    1      -21.915884
    2      -17.539200
    3      -15.280057
    4      -10.030652
    5       -9.304310
    6       -6.472981
    7       -6.232325
    8       -5.413529
    9       -0.928151
   10        0.766365
   11        1.566828
   12        1.963246
 
  0.1250000E+00  0.8333333E-01  0.0000000E+00  0.4629630E-02
    1      -21.867217
    2      -17.867283
    3      -14.879620
    4       -9.973061
    5       -9.256684
    6       -6.678010
    7       -6.311718
    8       -5.658667
    9       -0.609987
   10        0.832357
   11        1.633696
   12        2.031022
 
  0.1666667E+00  0.8333333E-01  0.0000000E+00  0.4629630E-02
    1      -21.799133
    2      -18.210157
    3      -14.436088
    4       -9.892570
    5       -9.190310
    6       -6.937393
    7       -6.436010
    8       -5.953107
    9       -0.214446
   10        0.924790
   11        1.727277
   12        2.125916
 
  0.2083333E+00  0.8333333E-01  0.0000000E+00  0.4629630E-02
    1      -21.711683
    2      -18.551412
    3      -13.966529
    4       -9.789321
    5       -9.105500
    6       -7.247622
    7       -6.596044
    8       -6.274399
    9        0.234863
   10        1.043685
   11        1.847531
   12        2.247935
 
  0.2500000E+00  0.8333333E-01  0.0000000E+00  0.4629630E-02
    1      -21.604939
    2      -18.883847
    3      -13.479024
    4       -9.663506
    5       -9.002673
    6       -7.604240
    7       -6.782275
    8       -6.607156
    9        0.721032
   10        1.189045
   11        1.994397
   12        2.397080
 
  0.2916667E+00  0.8333333E-01  0.0000000E+00  0.4629630E-02
    1      -21.478984
    2      -19.203832
    3      -12.978330
    4       -9.515370
    5       -8.882370
    6       -8.001834
    7       -6.985898
    8       -6.941182
    9        1.231934
   10        1.360856
   11        2.167779
   12        2.573351
 
  0.3333333E+00  0.8333333E-01  0.0000000E+00  0.4629630E-02
    1      -21.333926
    2      -19.509304
    3      -12.467917
    4       -9.345229
    5       -8.745265
    6       -8.434306
    7       -7.269686
    8       -7.199430
    9        1.559085
   10        1.758336
   11        2.367515
   12        2.776744
 
  0.3750000E+00  0.8333333E-01  0.0000000E+00  0.4629630E-02
    1      -21.169893
    2      -19.798980
    3      -11.950808
    4       -9.153474
    5       -8.895314
    6       -8.592199
    7       -7.588042
    8       -7.416810
    9        1.783682
   10        2.292337
   11        2.593296
   12        3.007252
 
  0.4166667E+00  0.8333333E-01  0.0000000E+00  0.4629630E-02
    1      -20.987042
    2      -20.071990
    3      -11.429976
    4       -9.378682
    5       -8.940597
    6       -8.424206
    7       -7.893014
    8       -7.633232
    9        2.034580
   10        2.825029
   11        2.844393
   12        3.264868
 
  0.4583333E+00  0.8333333E-01  0.0000000E+00  0.4629630E-02
    1      -20.785563
    2      -20.327714
    3      -10.908589
    4       -9.878680
    5       -8.707215
    6       -8.242554
    7       -8.182277
    8       -7.844901
    9        2.311697
   10        2.944134
   11        3.118398
   12        3.328627
 
  0.5000000E+00  0.8333333E-01  0.0000000E+00  0.2314815E-02
    1      -20.565692
    2      -20.565692
    3      -10.390163
    4      -10.390163
    5       -8.454109
    6       -8.454109
    7       -8.048809
    8       -8.048809
    9        2.614927
   10        2.614927
   11        3.398379
   12        3.398379
 
  0.0000000E+00  0.1111111E+00  0.0000000E+00  0.2314815E-02
    1      -21.858184
    2      -17.067362
    3      -15.645649
    4       -9.962386
    5       -9.723225
    6       -6.585846
    7       -6.417349
    8       -5.070615
    9       -1.241735
   10        0.844745
   11        1.645693
   12        2.043185
 
  0.4166667E-01  0.1111111E+00  0.0000000E+00  0.4629630E-02
    1      -21.848455
    2      -17.183452
    3      -15.515360
    4       -9.950878
    5       -9.713516
    6       -6.639022
    7       -6.419485
    8       -5.131294
    9       -1.167076
   10        0.857930
   11        1.659064
   12        2.056737
 
  0.8333333E-01  0.1111111E+00  0.0000000E+00  0.4629630E-02
    1      -21.819273
    2      -17.453003
    3      -15.203307
    4       -9.916373
    5       -9.684424
    6       -6.772931
    7       -6.449814
    8       -5.300162
    9       -0.956435
   10        0.897495
   11        1.699175
   12        2.097397
 
  0.1250000E+00  0.1111111E+00  0.0000000E+00  0.4629630E-02
    1      -21.770662
    2      -17.779636
    3      -14.806181
    4       -9.858928
    5       -9.636050
    6       -6.963238
    7       -6.527640
    8       -5.547611
    9       -0.639907
   10        0.963467
   11        1.766011
   12        2.165169
 
  0.1666667E+00  0.1111111E+00  0.0000000E+00  0.4629630E-02
    1      -21.702657
    2      -18.121216
    3      -14.366640
    4       -9.778643
    5       -9.568564
    6       -7.200594
    7       -6.654218
    8       -5.843804
    9       -0.248151
   10        1.055876
   11        1.859548
   12        2.260061
 
  0.2083333E+00  0.1111111E+00  0.0000000E+00  0.4629630E-02
    1      -21.615314
    2      -18.461341
    3      -13.901845
    4       -9.675659
    5       -9.482214
    6       -7.480739
    7       -6.823175
    8       -6.166149
    9        0.195087
   10        1.174748
   11        1.979750
   12        2.382078
 
  0.2500000E+00  0.1111111E+00  0.0000000E+00  0.4629630E-02
    1      -21.508701
    2      -18.792797
    3      -13.420031
    4       -9.550167
    5       -9.377327
    6       -7.801347
    7       -7.024488
    8       -6.499363
    9        0.673031
   10        1.320090
   11        2.126561
   12        2.531224
 
  0.2916667E+00  0.1111111E+00  0.0000000E+00  0.4629630E-02
    1      -21.382906
    2      -19.111933
    3      -12.926155
    4       -9.402412
    5       -9.254320
    6       -8.160461
    7       -7.247007
    8       -6.833409
    9        1.173796
   10        1.491888
   11        2.299894
   12        2.707499
 
  0.3333333E+00  0.1111111E+00  0.0000000E+00  0.4629630E-02
    1      -21.238039
    2      -19.416670
    3      -12.423941
    4       -9.232708
    5       -9.113714
    6       -8.555349
    7       -7.480475
    8       -7.161639
    9        1.688491
   10        1.690109
   11        2.499606
   12        2.910899
 
  0.3750000E+00  0.1111111E+00  0.0000000E+00  0.4629630E-02
    1      -21.074233
    2      -19.705706
    3      -11.916723
    4       -9.041443
    5       -8.982007
    6       -8.956151
    7       -7.716693
    8       -7.479538
    9        1.914697
   10        2.209843
   11        2.725423
   12        3.141418
 
  0.4166667E+00  0.1111111E+00  0.0000000E+00  0.4629630E-02
    1      -20.891647
    2      -19.978163
    3      -11.407861
    4       -9.435375
    5       -8.829105
    6       -8.782419
    7       -7.949688
    8       -7.783949
    9        2.165584
   10        2.730855
   11        2.976679
   12        3.399048
 
  0.4583333E+00  0.1111111E+00  0.0000000E+00  0.4629630E-02
    1      -20.690480
    2      -20.233408
    3      -10.900984
    4       -9.909915
    5       -8.596304
    6       -8.593492
    7       -8.175292
    8       -8.072600
    9        2.442683
   10        3.075063
   11        3.239600
   12        3.250845
 
  0.5000000E+00  0.1111111E+00  0.0000000E+00  0.2314815E-02
    1      -20.470968
    2      -20.470968
    3      -10.400147
    4      -10.400147
    5       -8.390592
    6       -8.390592
    7       -8.343809
    8       -8.343809
    9        2.745887
   10        2.745887
   11        3.516989
   12        3.516989
 
  0.0000000E+00  0.1388889E+00  0.0000000E+00  0.2314815E-02
    1      -21.734059
    2      -16.959425
    3      -15.544486
    4      -10.170962
    5       -9.815744
    6       -7.004729
    7       -6.640024
    8       -4.921084
    9       -1.287698
   10        1.013348
   11        1.815787
   12        2.215670
 
  0.4166667E-01  0.1388889E+00  0.0000000E+00  0.4629630E-02
    1      -21.724344
    2      -17.074623
    3      -15.415608
    4      -10.161012
    5       -9.804276
    6       -7.050718
    7       -6.644832
    8       -4.983137
    9       -1.212737
   10        1.026525
   11        1.829148
   12        2.229221
 
  0.8333333E-01  0.1388889E+00  0.0000000E+00  0.4629630E-02
    1      -21.695205
    2      -17.342389
    3      -15.106917
    4      -10.131178
    5       -9.769891
    6       -7.174474
    7       -6.672363
    8       -5.155160
    9       -1.002154
   10        1.066066
   11        1.869227
   12        2.269876
 
  0.1250000E+00  0.1388889E+00  0.0000000E+00  0.4629630E-02
    1      -21.646665
    2      -17.667190
    3      -14.714324
    4      -10.081513
    5       -9.712647
    6       -7.353858
    7       -6.741356
    8       -5.405863
    9       -0.687731
   10        1.131998
   11        1.936011
   12        2.337641
 
  0.1666667E+00  0.1388889E+00  0.0000000E+00  0.4629630E-02
    1      -21.578765
    2      -18.007108
    3      -14.280388
    4      -10.012104
    5       -9.632643
    6       -7.574711
    7       -6.860135
    8       -5.704469
    9       -0.301066
   10        1.224358
   11        2.029477
   12        2.432524
 
  0.2083333E+00  0.1388889E+00  0.0000000E+00  0.4629630E-02
    1      -21.491557
    2      -18.345772
    3      -13.822416
    4       -9.923067
    5       -9.530020
    6       -7.829347
    7       -7.028139
    8       -6.028221
    9        0.133944
   10        1.343175
   11        2.149591
   12        2.554533
 
  0.2500000E+00  0.1388889E+00  0.0000000E+00  0.4629630E-02
    1      -21.385114
    2      -18.675955
    3      -13.348899
    4       -9.814549
    5       -9.404969
    6       -8.114110
    7       -7.238738
    8       -6.362006
    9        0.600743
   10        1.488463
   11        2.296303
   12        2.703673
 
  0.2916667E+00  0.1388889E+00  0.0000000E+00  0.4629630E-02
    1      -21.259526
    2      -18.993986
    3      -12.865151
    4       -9.686719
    5       -9.257736
    6       -8.428112
    7       -7.481201
    8       -6.696025
    9        1.087781
   10        1.660213
   11        2.469539
   12        2.879945
 
  0.3333333E+00  0.1388889E+00  0.0000000E+00  0.4629630E-02
    1      -21.114907
    2      -19.297764
    3      -12.375358
    4       -9.539763
    5       -9.088631
    6       -8.772084
    7       -7.742689
    8       -7.023832
    9        1.586576
   10        1.858389
   11        2.669182
   12        3.083348
 
  0.3750000E+00  0.1388889E+00  0.0000000E+00  0.4629630E-02
    1      -20.951394
    2      -19.585968
    3      -11.883451
    4       -9.373883
    5       -9.146832
    6       -8.898040
    7       -8.010564
    8       -7.341064
    9        2.082933
   10        2.090432
   11        2.895021
   12        3.313874
 
  0.4166667E+00  0.1388889E+00  0.0000000E+00  0.4629630E-02
    1      -20.769153
    2      -19.857705
    3      -11.393543
    4       -9.551682
    5       -9.189302
    6       -8.686445
    7       -8.274482
    8       -7.644674
    9        2.333768
   10        2.593570
   11        3.146523
   12        3.571560
 
  0.4583333E+00  0.1388889E+00  0.0000000E+00  0.4629630E-02
    1      -20.568388
    2      -20.112326
    3      -10.910178
    4       -9.983764
    5       -8.986308
    6       -8.527421
    7       -8.454447
    8       -7.932462
    9        2.610800
   10        3.089959
   11        3.242973
   12        3.421046
 
  0.5000000E+00  0.1388889E+00  0.0000000E+00  0.2314815E-02
    1      -20.349345
    2      -20.349345
    3      -10.438423
    4      -10.438423
    5       -8.765367
    6       -8.765367
    7       -8.202800
    8       -8.202800
    9        2.913915
   10        2.913915
   11        3.554665
   12        3.554665
 
  0.0000000E+00  0.1666667E+00  0.0000000E+00  0.2314815E-02
    1      -21.582578
    2      -16.827583
    3      -15.424911
    4      -10.664979
    5       -9.637206
    6       -7.470137
    7       -6.904820
    8       -4.738738
    9       -1.358277
   10        1.219383
   11        2.023519
   12        2.426487
 
  0.4166667E-01  0.1666667E+00  0.0000000E+00  0.4629630E-02
    1      -21.572881
    2      -16.941816
    3      -15.297748
    4      -10.654614
    5       -9.625791
    6       -7.514797
    7       -6.905945
    8       -4.802766
    9       -1.282728
   10        1.232548
   11        2.036863
   12        2.440036
 
  0.8333333E-01  0.1666667E+00  0.0000000E+00  0.4629630E-02
    1      -21.543795
    2      -17.207547
    3      -14.993385
    4      -10.623505
    5       -9.591564
    6       -7.636354
    7       -6.921194
    8       -4.979241
    9       -1.071848
   10        1.272053
   11        2.076891
   12        2.480684
 
  0.1250000E+00  0.1666667E+00  0.0000000E+00  0.4629630E-02
    1      -21.495345
    2      -17.530163
    3      -14.606933
    4      -10.571606
    5       -9.534584
    6       -7.812593
    7       -6.970956
    8       -5.234413
    9       -0.759871
   10        1.337924
   11        2.143588
   12        2.548436
 
  0.1666667E+00  0.1666667E+00  0.0000000E+00  0.4629630E-02
    1      -21.427570
    2      -17.868052
    3      -14.180864
    4      -10.498829
    5       -9.454949
    6       -8.026733
    7       -7.068457
    8       -5.536226
    9       -0.379652
   10        1.430201
   11        2.236932
   12        2.643301
 
  0.2083333E+00  0.1666667E+00  0.0000000E+00  0.4629630E-02
    1      -21.340528
    2      -18.204910
    3      -13.732747
    4      -10.405022
    5       -9.352802
    6       -8.268362
    7       -7.218416
    8       -5.861765
    9        0.044807
   10        1.548920
   11        2.356889
   12        2.765290
 
  0.2500000E+00  0.1666667E+00  0.0000000E+00  0.4629630E-02
    1      -21.234294
    2      -18.533513
    3      -13.271551
    4      -10.289937
    5       -9.228335
    6       -8.531371
    7       -7.419034
    8       -6.196203
    9        0.497324
   10        1.694106
   11        2.503413
   12        2.914412
 
  0.2916667E+00  0.1666667E+00  0.0000000E+00  0.4629630E-02
    1      -21.108962
    2      -18.850168
    3      -12.803278
    4      -10.153189
    5       -9.081792
    6       -8.812783
    7       -7.663536
    8       -6.530081
    9        0.966846
   10        1.865756
   11        2.676438
   12        3.090672
 
  0.3333333E+00  0.1666667E+00  0.0000000E+00  0.4629630E-02
    1      -20.964648
    2      -19.152752
    3      -12.333044
    4       -9.994200
    5       -9.112262
    6       -8.913481
    7       -7.941367
    8       -6.857237
    9        1.445414
   10        2.063837
   11        2.875879
   12        3.294068
 
  0.3750000E+00  0.1666667E+00  0.0000000E+00  0.4629630E-02
    1      -20.801498
    2      -19.439922
    3      -11.865987
    4       -9.812167
    5       -9.431748
    6       -8.723786
    7       -8.239364
    8       -7.173513
    9        1.926912
   10        2.288287
   11        3.101609
   12        3.524593
 
  0.4166667E+00  0.1666667E+00  0.0000000E+00  0.4629630E-02
    1      -20.619685
    2      -19.710761
    3      -11.407679
    4       -9.774640
    5       -9.606100
    6       -8.543269
    7       -8.513184
    8       -7.476004
    9        2.406339
   10        2.539021
   11        3.353379
   12        3.782239
 
  0.4583333E+00  0.1666667E+00  0.0000000E+00  0.4629630E-02
    1      -20.419419
    2      -19.964606
    3      -10.964150
    4      -10.144164
    5       -9.375082
    6       -8.839820
    7       -8.282262
    8       -7.762608
    9        2.815929
   10        2.879355
   11        3.447733
   12        3.628762
 
  0.5000000E+00  0.1666667E+00  0.0000000E+00  0.2314815E-02
    1      -20.200956
    2      -20.200956
    3      -10.541385
    4      -10.541385
    5       -9.118989
    6       -9.118989
    7       -8.031760
    8       -8.031760
    9        3.118885
   10        3.118885
   11        3.341810
   12        3.341810
 