gr                                      
           1
     4.380952    0.000000    0.000000
     0.000000    2.457095    0.000000
     0.000000    0.000000   19.586561
   C 
   4
Direct configuration=     1
   0.99945869  0.00000000  0.00000000
   0.16720798  0.50000000  0.00000000
   0.49945869  0.50000000  0.00000000
   0.66720798  0.00000000  0.00000000
Direct configuration=     2
   0.99945139  0.00000000  0.00000000
   0.16721528  0.50000000 -0.00000000
   0.49945139  0.50000000  0.00000000
   0.66721528  0.00000000 -0.00000000
Direct configuration=     3
   0.99945713  0.00000000  0.00000000
   0.16720953  0.50000000 -0.00000000
   0.49945713  0.50000000  0.00000000
   0.66720953  0.00000000 -0.00000000
Direct configuration=     4
   0.99945714  0.00000000  0.00000000
   0.16720953  0.50000000 -0.00000000
   0.49945714  0.50000000  0.00000000
   0.66720953  0.00000000 -0.00000000
Direct configuration=     5
   0.99945714  0.00000000  0.00000000
   0.16720953  0.50000000 -0.00000000
   0.49945714  0.50000000  0.00000000
   0.66720953  0.00000000 -0.00000000
