 running on    8 total cores
 distrk:  each k-point on    8 cores,    1 groups
 distr:  one band on    2 cores,    4 groups
 using from now: INCAR     
 vasp.5.3.5 31Mar14 (build Mar 02 2015 18:14:16) complex                        
  
 POSCAR found type information on POSCAR  C 
 POSCAR found :  1 types and       4 ions
 LDA part: xc-table for Pade appr. of Perdew
 POSCAR, INCAR and KPOINTS ok, starting setup
 WARNING: small aliasing (wrap around) errors must be expected
 FFT: planning ...
 WAVECAR not read
 entering main loop
       N       E                     dE             d eps       ncg     rms          rms(c)
DAV:   1     0.188086166048E+03    0.18809E+03   -0.10621E+04  5928   0.275E+03
DAV:   2    -0.956159978034E+01   -0.19765E+03   -0.17530E+03 10448   0.260E+02
DAV:   3    -0.382410544757E+02   -0.28679E+02   -0.28241E+02  7276   0.119E+02    0.720E+00
RMM:   4    -0.376393097929E+02    0.60174E+00   -0.93626E+00  5928   0.263E+01    0.417E+00
RMM:   5    -0.369101537136E+02    0.72916E+00   -0.27579E+00  5934   0.113E+01    0.714E-01
RMM:   6    -0.369124379943E+02   -0.22843E-02   -0.87985E-02  6386   0.204E+00    0.511E-01
RMM:   7    -0.369033829952E+02    0.90550E-02   -0.32866E-02  5941   0.157E+00    0.336E-01
RMM:   8    -0.368981125530E+02    0.52704E-02   -0.69837E-03  5933   0.554E-01    0.136E-01
RMM:   9    -0.368978783876E+02    0.23417E-03   -0.20722E-02  5928   0.852E-01    0.160E-01
RMM:  10    -0.368976853157E+02    0.19307E-03   -0.24560E-03  5929   0.357E-01    0.280E-02
RMM:  11    -0.369001246694E+02   -0.24394E-02   -0.76126E-04  5929   0.184E-01    0.459E-02
RMM:  12    -0.369005753443E+02   -0.45067E-03   -0.20986E-04  5939   0.963E-02    0.675E-03
RMM:  13    -0.369008497375E+02   -0.27439E-03   -0.61245E-05  6000   0.443E-02    0.423E-03
RMM:  14    -0.369009312086E+02   -0.81471E-04   -0.10814E-05  5965   0.180E-02    0.163E-03
RMM:  15    -0.369009421303E+02   -0.10922E-04   -0.18781E-06  5998   0.786E-03    0.151E-03
RMM:  16    -0.369009544751E+02   -0.12345E-04   -0.97067E-07  5928   0.628E-03    0.861E-04
RMM:  17    -0.369009597435E+02   -0.52684E-05   -0.55378E-08  6111   0.158E-03    0.849E-04
RMM:  18    -0.369009609084E+02   -0.11649E-05   -0.76706E-08  5928   0.204E-03    0.820E-05
RMM:  19    -0.369009616879E+02   -0.77947E-06   -0.11125E-08  6081   0.524E-04    0.319E-05
RMM:  20    -0.369009617545E+02   -0.66600E-07   -0.88835E-10  4462   0.136E-04    0.253E-05
RMM:  21    -0.369009617717E+02   -0.17225E-07   -0.28291E-10  4423   0.104E-04    0.353E-06
RMM:  22    -0.369009617720E+02   -0.29502E-09   -0.43102E-12  3895   0.415E-05    0.192E-06
RMM:  23    -0.369009617723E+02   -0.28933E-09   -0.89239E-12  3544   0.359E-05    0.874E-07
RMM:  24    -0.369009617721E+02    0.21146E-09   -0.51484E-12  3097   0.291E-05    0.220E-07
RMM:  25    -0.369009617725E+02   -0.46282E-09   -0.61026E-12  2792   0.246E-05    0.659E-08
RMM:  26    -0.369009617722E+02    0.34572E-09   -0.24211E-12  2563   0.219E-05    0.942E-08
RMM:  27    -0.369009617723E+02   -0.17076E-09   -0.15563E-12  2386   0.203E-05    0.438E-08
RMM:  28    -0.369009617720E+02    0.32310E-09   -0.32908E-13  2266   0.191E-05    0.515E-08
RMM:  29    -0.369009617722E+02   -0.20555E-09   -0.38882E-13  2172   0.184E-05    0.535E-08
RMM:  30    -0.369009617722E+02    0.15461E-10   -0.54027E-13  2085   0.177E-05
   1 F= -.36900962E+02 E0= -.36900959E+02  d E =-.369010E+02
 BRION: g(F)=  0.632E-07 g(S)=  0.000E+00
 bond charge predicted
       N       E                     dE             d eps       ncg     rms          rms(c)
DAV:   1    -0.369009616733E+02    0.98912E-07   -0.84757E-06  6304   0.274E-02    0.566E-04
RMM:   2    -0.369009616803E+02   -0.69791E-08   -0.13876E-07  5942   0.329E-03    0.411E-04
WARNING in EDDRMM: call to ZHEGV failed, returncode =   6  3  1
RMM:   3    -0.369009616796E+02    0.67064E-09   -0.22913E-08  5969   0.122E-03    0.103E-04
RMM:   4    -0.369009616787E+02    0.93360E-09   -0.13926E-09  5969   0.296E-04    0.300E-05
RMM:   5    -0.369009616791E+02   -0.37448E-09   -0.80519E-11  3861   0.786E-05    0.121E-05
RMM:   6    -0.369009616789E+02    0.12324E-09   -0.18062E-11  3536   0.489E-05    0.237E-06
RMM:   7    -0.369009616790E+02   -0.24102E-10   -0.90986E-12  3426   0.385E-05
   2 F= -.36900962E+02 E0= -.36900959E+02  d E =0.932462E-07
 BRION: g(F)=  0.105E-05 g(S)=  0.000E+00 retain N=  1 mean eig= 0.20
 eig:   0.197
 bond charge predicted
       N       E                     dE             d eps       ncg     rms          rms(c)
DAV:   1    -0.369009617812E+02   -0.10225E-06   -0.54575E-06  6616   0.220E-02    0.457E-04
RMM:   2    -0.369009617844E+02   -0.32538E-08   -0.87252E-08  5949   0.264E-03    0.330E-04
WARNING in EDDRMM: call to ZHEGV failed, returncode =   6  3  1
WARNING in EDDRMM: call to ZHEGV failed, returncode =   6  3  1
RMM:   3    -0.369009617795E+02    0.49434E-08   -0.14651E-08  5966   0.980E-04    0.806E-05
RMM:   4    -0.369009617794E+02    0.94474E-10   -0.87094E-10  5682   0.237E-04    0.239E-05
RMM:   5    -0.369009617790E+02    0.39427E-09   -0.46797E-11  3768   0.679E-05    0.980E-06
RMM:   6    -0.369009617791E+02   -0.10959E-09   -0.15095E-11  3417   0.457E-05    0.208E-06
RMM:   7    -0.369009617794E+02   -0.25966E-09   -0.88313E-12  3156   0.358E-05    0.125E-06
RMM:   8    -0.369009617790E+02    0.37733E-09   -0.54329E-12  2895   0.309E-05    0.561E-07
RMM:   9    -0.369009617790E+02    0.41268E-10   -0.29583E-12  2688   0.273E-05
   3 F= -.36900962E+02 E0= -.36900959E+02  d E =-.999955E-07
 BRION: g(F)=  0.814E-12 g(S)=  0.000E+00 retain N=  1 mean eig= 0.20
 eig:   0.197
 bond charge predicted
       N       E                     dE             d eps       ncg     rms          rms(c)
DAV:   1    -0.369009617789E+02    0.14199E-09    0.61229E-09  4588   0.310E-05    0.235E-07
RMM:   2    -0.369009617793E+02   -0.47748E-09    0.54730E-14  1596   0.120E-05    0.147E-07
RMM:   3    -0.369009617791E+02    0.26205E-09   -0.11058E-12  1535   0.121E-05    0.145E-08
RMM:   4    -0.369009617794E+02   -0.28069E-09   -0.68505E-14  1495   0.117E-05    0.149E-08
RMM:   5    -0.369009617791E+02    0.23908E-09   -0.38352E-13  1464   0.114E-05    0.126E-08
RMM:   6    -0.369009617792E+02   -0.38767E-10   -0.19519E-13  1425   0.110E-05
   4 F= -.36900962E+02 E0= -.36900959E+02  d E =-.195087E-09
 BRION: g(F)=  0.107E-11 g(S)=  0.000E+00 retain N=  1 mean eig= 0.09
 eig:   0.092
 bond charge predicted
       N       E                     dE             d eps       ncg     rms          rms(c)
DAV:   1    -0.369009617788E+02    0.31480E-09    0.61336E-09  4408   0.139E-05    0.133E-07
RMM:   2    -0.369009617792E+02   -0.39836E-09   -0.12463E-13  1166   0.531E-06    0.812E-08
RMM:   3    -0.369009617793E+02   -0.13051E-09    0.20930E-14  1235   0.527E-06    0.239E-09
RMM:   4    -0.369009617793E+02    0.48203E-10    0.48233E-14  1121   0.527E-06    0.136E-09
RMM:   5    -0.369009617793E+02    0.31832E-10    0.11061E-14  1133   0.525E-06
   5 F= -.36900962E+02 E0= -.36900959E+02  d E =-.952696E-10
 BRION: g(F)=  0.182E-13 g(S)=  0.000E+00 retain N=  1 mean eig= 0.08
 eig:   0.081
 reached required accuracy - stopping structural energy minimisation
