    4    4  400    1
  0.5270948E+02  0.4262055E-09  0.2504311E-09  0.1975338E-08  0.5000000E-15
  1.000000000000000E-004
  CAR 
 gr                                      
     16    247     12
 
  0.0000000E+00  0.0000000E+00  0.0000000E+00  0.1157407E-02
    1      -22.150071
    2      -16.829630
    3      -15.906448
    4      -10.278950
    5       -9.355422
    6       -5.916460
    7       -5.754519
    8       -4.986190
    9       -1.112453
   10        0.536274
   11        1.335626
   12        1.724755
 
  0.4166667E-01  0.0000000E+00  0.0000000E+00  0.2314815E-02
    1      -22.139745
    2      -17.012453
    3      -15.708507
    4      -10.266664
    5       -9.345098
    6       -5.939729
    7       -5.795736
    8       -5.054835
    9       -1.028517
   10        0.550272
   11        1.349781
   12        1.739086
 
  0.8333333E-01  0.0000000E+00  0.0000000E+00  0.2314815E-02
    1      -22.108772
    2      -17.367282
    3      -15.308409
    4      -10.229824
    5       -9.314176
    6       -6.008210
    7       -5.917813
    8       -5.244536
    9       -0.793121
   10        0.592265
   11        1.392242
   12        1.782079
 
  0.1250000E+00  0.0000000E+00  0.0000000E+00  0.2314815E-02
    1      -22.057172
    2      -17.753903
    3      -14.846643
    4      -10.168488
    5       -9.262807
    6       -6.118175
    7       -6.116277
    8       -5.519751
    9       -0.442331
   10        0.662251
   11        1.462998
   12        1.853734
 
  0.1666667E+00  0.0000000E+00  0.0000000E+00  0.2314815E-02
    1      -21.984978
    2      -18.139589
    3      -14.356399
    4      -10.082751
    5       -9.191250
    6       -6.384394
    7       -6.264086
    8       -5.846116
    9       -0.011401
   10        0.760226
   11        1.562028
   12        1.954051
 
  0.2083333E+00  0.0000000E+00  0.0000000E+00  0.2314815E-02
    1      -21.892241
    2      -18.514845
    3      -13.847843
    4       -9.972756
    5       -9.099880
    6       -6.714024
    7       -6.439376
    8       -6.198662
    9        0.473445
   10        0.886178
   11        1.689301
   12        2.083030
 
  0.2500000E+00  0.0000000E+00  0.0000000E+00  0.2314815E-02
    1      -21.779024
    2      -18.875893
    3      -13.325636
    4       -9.838690
    5       -8.989198
    6       -7.096436
    7       -6.637158
    8       -6.561068
    9        0.994233
   10        1.040088
   11        1.844771
   12        2.240667
 
  0.2916667E+00  0.0000000E+00  0.0000000E+00  0.2314815E-02
    1      -21.645407
    2      -19.220845
    3      -12.792792
    4       -9.680797
    5       -8.859847
    6       -7.522961
    7       -6.922878
    8       -6.850779
    9        1.221926
   10        1.538411
   11        2.028369
   12        2.426959
 
  0.3333333E+00  0.0000000E+00  0.0000000E+00  0.2314815E-02
    1      -21.491487
    2      -19.548591
    3      -12.251819
    4       -9.499383
    5       -8.712641
    6       -7.985429
    7       -7.277288
    8       -7.074156
    9        1.431649
   10        2.096495
   11        2.239989
   12        2.641898
 
  0.3750000E+00  0.0000000E+00  0.0000000E+00  0.2314815E-02
    1      -21.317378
    2      -19.858395
    3      -11.705158
    4       -9.294836
    5       -8.548582
    6       -8.476408
    7       -7.619735
    8       -7.301926
    9        1.669198
   10        2.479450
   11        2.660110
   12        2.885471
 
  0.4166667E+00  0.0000000E+00  0.0000000E+00  0.2314815E-02
    1      -21.123215
    2      -20.149723
    3      -11.155400
    4       -9.067636
    5       -8.989301
    6       -8.368904
    7       -7.947053
    8       -7.529486
    9        1.934493
   10        2.746386
   11        3.157654
   12        3.217376
 
  0.4583333E+00  0.0000000E+00  0.0000000E+00  0.2314815E-02
    1      -20.909158
    2      -20.422166
    3      -10.605420
    4       -9.518328
    5       -8.818384
    6       -8.256979
    7       -8.175117
    8       -7.752945
    9        2.227416
   10        2.895283
   11        3.039843
   12        3.458403
 
  0.5000000E+00  0.0000000E+00  0.0000000E+00  0.1157407E-02
    1      -20.675400
    2      -20.675400
    3      -10.058479
    4      -10.058479
    5       -8.547842
    6       -8.547842
    7       -7.969054
    8       -7.969054
    9        2.547787
   10        2.547787
   11        3.355735
   12        3.355735
 
  0.0000000E+00  0.2777778E-01  0.0000000E+00  0.2314815E-02
    1      -22.136803
    2      -16.818207
    3      -15.895578
    4      -10.263163
    5       -9.414940
    6       -5.971248
    7       -5.785973
    8       -4.970094
    9       -1.117753
   10        0.554239
   11        1.353842
   12        1.743196
 
  0.4166667E-01  0.2777778E-01  0.0000000E+00  0.4629630E-02
    1      -22.126478
    2      -17.000894
    3      -15.697828
    4      -10.250881
    5       -9.404591
    6       -5.998427
    7       -5.822568
    8       -5.038904
    9       -1.033779
   10        0.568238
   11        1.367996
   12        1.757527
 
  0.8333333E-01  0.2777778E-01  0.0000000E+00  0.4629630E-02
    1      -22.095509
    2      -17.355497
    3      -15.298130
    4      -10.214054
    5       -9.373592
    6       -6.081655
    7       -5.927898
    8       -5.228975
    9       -0.798393
   10        0.610234
   11        1.410454
   12        1.800520
 
  0.1250000E+00  0.2777778E-01  0.0000000E+00  0.4629630E-02
    1      -22.043916
    2      -17.741904
    3      -14.836874
    4      -10.152739
    5       -9.322091
    6       -6.230575
    7       -6.084451
    8       -5.504562
    9       -0.447868
   10        0.680226
   11        1.481205
   12        1.872177
 
  0.1666667E+00  0.2777778E-01  0.0000000E+00  0.4629630E-02
    1      -21.971733
    2      -18.127403
    3      -14.347248
    4      -10.067034
    5       -9.250339
    6       -6.461641
    7       -6.263923
    8       -5.831192
    9       -0.017565
   10        0.778209
   11        1.580228
   12        1.972495
 
  0.2083333E+00  0.2777778E-01  0.0000000E+00  0.4629630E-02
    1      -21.879010
    2      -18.502496
    3      -13.839437
    4       -9.957079
    5       -9.158697
    6       -6.769826
    7       -6.457016
    8       -6.183886
    9        0.466281
   10        0.904171
   11        1.707492
   12        2.101476
 
  0.2500000E+00  0.2777778E-01  0.0000000E+00  0.4629630E-02
    1      -21.765810
    2      -18.863403
    3      -13.318126
    4       -9.823061
    5       -9.047650
    6       -7.138283
    7       -6.665249
    8       -6.546345
    9        0.985722
   10        1.058093
   11        1.862952
   12        2.259116
 
  0.2916667E+00  0.2777778E-01  0.0000000E+00  0.4629630E-02
    1      -21.632215
    2      -19.208235
    3      -12.786362
    4       -9.665225
    5       -8.917821
    6       -7.554460
    7       -6.908143
    8       -6.886026
    9        1.239944
   10        1.528254
   11        2.046540
   12        2.445412
 
  0.3333333E+00  0.2777778E-01  0.0000000E+00  0.4629630E-02
    1      -21.478321
    2      -19.535876
    3      -12.246694
    4       -9.483878
    5       -8.769995
    6       -8.008782
    7       -7.262498
    8       -7.114740
    9        1.449682
   10        2.084463
   11        2.258151
   12        2.660356
 
  0.3750000E+00  0.2777778E-01  0.0000000E+00  0.4629630E-02
    1      -21.304243
    2      -19.845590
    3      -11.701618
    4       -9.279405
    5       -8.605141
    6       -8.493203
    7       -7.604864
    8       -7.346651
    9        1.687248
   10        2.497607
   11        2.646136
   12        2.903935
 
  0.4166667E+00  0.2777778E-01  0.0000000E+00  0.4629630E-02
    1      -21.110116
    2      -20.136840
    3      -11.153788
    4       -9.052288
    5       -9.000774
    6       -8.424450
    7       -7.932089
    8       -7.577474
    9        1.952563
   10        2.764551
   11        3.176129
   12        3.202180
 
  0.4583333E+00  0.2777778E-01  0.0000000E+00  0.4629630E-02
    1      -20.896101
    2      -20.409216
    3      -10.606161
    4       -9.525473
    5       -8.803126
    6       -8.241915
    7       -8.229375
    8       -7.803521
    9        2.245515
   10        2.913516
   11        3.058042
   12        3.477275
 
  0.5000000E+00  0.2777778E-01  0.0000000E+00  0.2314815E-02
    1      -20.662393
    2      -20.662393
    3      -10.062098
    4      -10.062098
    5       -8.532679
    6       -8.532679
    7       -8.021684
    8       -8.021684
    9        2.565932
   10        2.565932
   11        3.373946
   12        3.373946
 
  0.0000000E+00  0.5555556E-01  0.0000000E+00  0.2314815E-02
    1      -22.097009
    2      -16.783940
    3      -15.863149
    4      -10.215833
    5       -9.588648
    6       -6.131315
    7       -5.879418
    8       -4.921827
    9       -1.134458
   10        0.608143
   11        1.408483
   12        1.798519
 
  0.4166667E-01  0.5555556E-01  0.0000000E+00  0.4629630E-02
    1      -22.086688
    2      -16.966235
    3      -15.665969
    4      -10.203564
    5       -9.578219
    6       -6.165366
    7       -5.907072
    8       -4.991144
    9       -1.050362
   10        0.622144
   11        1.422634
   12        1.812851
 
  0.8333333E-01  0.5555556E-01  0.0000000E+00  0.4629630E-02
    1      -22.055732
    2      -17.320169
    3      -15.267476
    4      -10.166777
    5       -9.546974
    6       -6.265928
    7       -5.989220
    8       -5.182357
    9       -0.814994
   10        0.664147
   11        1.465082
   12        1.855846
 
  0.1250000E+00  0.5555556E-01  0.0000000E+00  0.4629630E-02
    1      -22.004161
    2      -17.705938
    3      -14.807777
    4      -10.105529
    5       -9.495045
    6       -6.429598
    7       -6.122335
    8       -5.459082
    9       -0.465266
   10        0.734152
   11        1.535817
   12        1.927505
 
  0.1666667E+00  0.5555556E-01  0.0000000E+00  0.4629630E-02
    1      -21.932010
    2      -18.090872
    3      -14.320052
    4      -10.019918
    5       -9.422656
    6       -6.653428
    7       -6.298723
    8       -5.786522
    9       -0.036870
   10        0.832154
   11        1.634818
   12        2.027828
 
  0.2083333E+00  0.5555556E-01  0.0000000E+00  0.4629630E-02
    1      -21.839329
    2      -18.465474
    3      -13.814539
    4       -9.910083
    5       -9.330130
    6       -6.935263
    7       -6.507352
    8       -6.139662
    9        0.443925
   10        0.958142
   11        1.762054
   12        2.156814
 
  0.2500000E+00  0.5555556E-01  0.0000000E+00  0.4629630E-02
    1      -21.726182
    2      -18.825957
    3      -13.296006
    4       -9.776213
    5       -9.217896
    6       -7.271989
    7       -6.736864
    8       -6.502278
    9        0.959264
   10        1.112093
   11        1.917482
   12        2.314461
 
  0.2916667E+00  0.5555556E-01  0.0000000E+00  0.4629630E-02
    1      -21.592652
    2      -19.170423
    3      -12.767608
    4       -9.618552
    5       -9.086506
    6       -7.658190
    7       -6.978046
    8       -6.864032
    9        1.293979
   10        1.496778
   11        2.101036
   12        2.500766
 
  0.3333333E+00  0.5555556E-01  0.0000000E+00  0.4629630E-02
    1      -21.438835
    2      -19.497750
    3      -12.232033
    4       -9.437407
    5       -8.936649
    6       -8.086646
    7       -7.224173
    8       -7.218215
    9        1.503754
   10        2.047251
   11        2.312616
   12        2.715723
 
  0.3750000E+00  0.5555556E-01  0.0000000E+00  0.4629630E-02
    1      -21.264849
    2      -19.807192
    3      -11.691950
    4       -9.233162
    5       -8.769173
    6       -8.549602
    7       -7.560333
    8       -7.470254
    9        1.741364
   10        2.552056
   11        2.602901
   12        2.959319
 
  0.4166667E+00  0.5555556E-01  0.0000000E+00  0.4629630E-02
    1      -21.070831
    2      -20.098208
    3      -11.150236
    4       -9.039664
    5       -9.006296
    6       -8.585115
    7       -7.887270
    8       -7.712376
    9        2.006730
   10        2.819022
   11        3.154596
   12        3.231539
 
  0.4583333E+00  0.5555556E-01  0.0000000E+00  0.4629630E-02
    1      -20.856944
    2      -20.370382
    3      -10.610129
    4       -9.550180
    5       -8.757409
    6       -8.385730
    7       -8.196793
    8       -7.947349
    9        2.299750
   10        2.968059
   11        3.112622
   12        3.532442
 
  0.5000000E+00  0.5555556E-01  0.0000000E+00  0.2314815E-02
    1      -20.623385
    2      -20.623385
    3      -10.075340
    4      -10.075340
    5       -8.487254
    6       -8.487254
    7       -8.172533
    8       -8.172533
    9        2.620274
   10        2.620274
   11        3.428563
   12        3.428563
 
  0.0000000E+00  0.8333333E-01  0.0000000E+00  0.2314815E-02
    1      -22.030726
    2      -16.726842
    3      -15.809755
    4      -10.137059
    5       -9.863338
    6       -6.385051
    7       -6.032192
    8       -4.841447
    9       -1.164973
   10        0.698004
   11        1.499527
   12        1.890730
 
  0.4166667E-01  0.8333333E-01  0.0000000E+00  0.4629630E-02
    1      -22.020412
    2      -16.908538
    3      -15.613488
    4      -10.124813
    5       -9.852753
    6       -6.424886
    7       -6.050795
    8       -4.911665
    9       -1.080639
   10        0.712007
   11        1.513672
   12        1.905062
 
  0.8333333E-01  0.8333333E-01  0.0000000E+00  0.4629630E-02
    1      -21.989478
    2      -17.261387
    3      -15.217033
    4      -10.088095
    5       -9.821032
    6       -6.537851
    7       -6.111265
    8       -5.104886
    9       -0.845250
   10        0.754015
   11        1.556103
   12        1.948058
 
  0.1250000E+00  0.8333333E-01  0.0000000E+00  0.4629630E-02
    1      -21.937944
    2      -17.646093
    3      -14.760033
    4      -10.026961
    5       -9.768276
    6       -6.711193
    7       -6.220823
    8       -5.383593
    9       -0.496859
   10        0.824031
   11        1.626808
   12        2.019719
 
  0.1666667E+00  0.8333333E-01  0.0000000E+00  0.4629630E-02
    1      -21.865847
    2      -18.030079
    3      -14.275645
    4       -9.941510
    5       -9.694654
    6       -6.934308
    7       -6.381263
    8       -5.712424
    9       -0.071724
   10        0.922052
   11        1.725768
   12        2.120046
 
  0.2083333E+00  0.8333333E-01  0.0000000E+00  0.4629630E-02
    1      -21.773236
    2      -18.403854
    3      -13.774207
    4       -9.831882
    5       -9.600406
    6       -7.200764
    7       -6.587615
    8       -6.066317
    9        0.403842
   10        1.048066
   11        1.852953
   12        2.249039
 
  0.2500000E+00  0.8333333E-01  0.0000000E+00  0.4629630E-02
    1      -21.660178
    2      -18.763623
    3      -13.260648
    4       -9.698266
    5       -9.485849
    6       -7.507769
    7       -6.829610
    8       -6.429183
    9        0.912150
   10        1.202053
   11        2.008319
   12        2.406696
 
  0.2916667E+00  0.8333333E-01  0.0000000E+00  0.4629630E-02
    1      -21.526757
    2      -19.107472
    3      -12.738337
    4       -9.540905
    5       -9.351379
    6       -7.854772
    7       -7.094077
    8       -6.790844
    9        1.383979
   10        1.441064
   11        2.191806
   12        2.593013
 
  0.3333333E+00  0.8333333E-01  0.0000000E+00  0.4629630E-02
    1      -21.373070
    2      -19.434268
    3      -12.210247
    4       -9.360106
    5       -9.197479
    6       -8.241305
    7       -7.367986
    8       -7.144716
    9        1.593801
   10        1.981666
   11        2.403323
   12        2.807986
 
  0.3750000E+00  0.8333333E-01  0.0000000E+00  0.4629630E-02
    1      -21.199238
    2      -19.743253
    3      -11.679414
    4       -9.156253
    5       -9.024722
    6       -8.665025
    7       -7.641045
    8       -7.486396
    9        1.831461
   10        2.526723
   11        2.642722
   12        3.051604
 
  0.4166667E+00  0.8333333E-01  0.0000000E+00  0.4629630E-02
    1      -21.005402
    2      -20.033876
    3      -11.149195
    4       -9.121257
    5       -8.929823
    6       -8.833784
    7       -7.906528
    8       -7.812828
    9        2.096884
   10        2.909716
   11        3.069097
   12        3.323854
 
  0.4583333E+00  0.8333333E-01  0.0000000E+00  0.4629630E-02
    1      -20.791730
    2      -20.305711
    3      -10.623434
    4       -9.603905
    5       -8.681409
    6       -8.625450
    7       -8.160498
    8       -8.121823
    9        2.389975
   10        3.058582
   11        3.203513
   12        3.587455
 
  0.5000000E+00  0.8333333E-01  0.0000000E+00  0.2314815E-02
    1      -20.558422
    2      -20.558422
    3      -10.106603
    4      -10.106603
    5       -8.411759
    6       -8.411759
    7       -8.400644
    8       -8.400644
    9        2.710605
   10        2.710605
   11        3.519518
   12        3.519518
 
  0.0000000E+00  0.1111111E+00  0.0000000E+00  0.2314815E-02
    1      -21.938016
    2      -16.646934
    3      -15.736514
    4      -10.220528
    5      -10.027008
    6       -6.716529
    7       -6.240113
    8       -4.729054
    9       -1.213235
   10        0.823846
   11        1.626938
   12        2.019832
 
  0.4166667E-01  0.1111111E+00  0.0000000E+00  0.4629630E-02
    1      -21.927712
    2      -16.827909
    3      -15.541454
    4      -10.209676
    5      -10.014796
    6       -6.760879
    7       -6.249982
    8       -4.800659
    9       -1.128478
   10        0.837847
   11        1.641073
   12        2.034163
 
  0.8333333E-01  0.1111111E+00  0.0000000E+00  0.4629630E-02
    1      -21.896809
    2      -17.179310
    3      -15.147931
    4      -10.177135
    5       -9.978178
    6       -6.883459
    7       -6.288779
    8       -4.996939
    9       -0.892921
   10        0.879852
   11        1.683475
   12        2.077159
 
  0.1250000E+00  0.1111111E+00  0.0000000E+00  0.4629630E-02
    1      -21.845328
    2      -17.562531
    3      -14.694969
    4      -10.122946
    5       -9.917211
    6       -7.065006
    7       -6.371873
    8       -5.278609
    9       -0.546388
   10        0.949865
   11        1.754132
   12        2.148820
 
  0.1666667E+00  0.1111111E+00  0.0000000E+00  0.4629630E-02
    1      -21.773306
    2      -17.945173
    3      -14.215679
    4      -10.047175
    5       -9.831994
    6       -7.290331
    7       -6.507874
    8       -5.609477
    9       -0.125965
   10        1.047889
   11        1.853024
   12        2.249150
 
  0.2083333E+00  0.1111111E+00  0.0000000E+00  0.4629630E-02
    1      -21.680794
    2      -18.317771
    3      -13.720569
    4       -9.949906
    5       -9.722668
    6       -7.549796
    7       -6.697308
    8       -5.964436
    9        0.342012
   10        1.173916
   11        1.980121
   12        2.378147
 
  0.2500000E+00  0.1111111E+00  0.0000000E+00  0.4629630E-02
    1      -21.567862
    2      -18.676521
    3      -13.214856
    4       -9.831226
    5       -9.589423
    6       -7.838046
    7       -6.934378
    8       -6.327626
    9        0.840129
   10        1.327926
   11        2.135382
   12        2.535812
 
  0.2916667E+00  0.1111111E+00  0.0000000E+00  0.4629630E-02
    1      -21.434593
    2      -19.019492
    3      -12.702319
    4       -9.691217
    5       -9.432501
    6       -8.153189
    7       -7.208572
    8       -6.689108
    9        1.356595
   10        1.509884
   11        2.318749
   12        2.722142
 
  0.3333333E+00  0.1111111E+00  0.0000000E+00  0.4629630E-02
    1      -21.281090
    2      -19.345531
    3      -12.186477
    4       -9.529923
    5       -9.252211
    6       -8.496121
    7       -7.506223
    8       -7.042489
    9        1.719743
   10        1.882881
   11        2.530142
   12        2.937129
 
  0.3750000E+00  0.1111111E+00  0.0000000E+00  0.4629630E-02
    1      -21.107477
    2      -19.653864
    3      -11.671098
    4       -9.347327
    5       -9.048934
    6       -8.869244
    7       -7.812543
    8       -7.383497
    9        1.957441
   10        2.412311
   11        2.769440
   12        3.180767
 
  0.4166667E+00  0.1111111E+00  0.0000000E+00  0.4629630E-02
    1      -20.913899
    2      -19.943927
    3      -11.160481
    4       -9.274348
    5       -9.143325
    6       -8.823143
    7       -8.114281
    8       -7.709169
    9        2.222903
   10        2.939110
   11        3.036429
   12        3.453045
 
  0.4583333E+00  0.1111111E+00  0.0000000E+00  0.4629630E-02
    1      -20.700531
    2      -20.215282
    3      -10.659636
    4       -9.710638
    5       -8.917741
    6       -8.575429
    7       -8.401979
    8       -8.017373
    9        2.516037
   10        3.184804
   11        3.330529
   12        3.456268
 
  0.5000000E+00  0.1111111E+00  0.0000000E+00  0.2314815E-02
    1      -20.467578
    2      -20.467578
    3      -10.174301
    4      -10.174301
    5       -8.670477
    6       -8.670477
    7       -8.306527
    8       -8.306527
    9        2.836724
   10        2.836724
   11        3.646465
   12        3.646465
 
  0.0000000E+00  0.1388889E+00  0.0000000E+00  0.2314815E-02
    1      -21.818969
    2      -16.544246
    3      -15.645334
    4      -10.639671
    5       -9.885923
    6       -7.108693
    7       -6.497824
    8       -4.584791
    9       -1.284543
   10        0.985685
   11        1.790658
   12        2.185830
 
  0.4166667E-01  0.1388889E+00  0.0000000E+00  0.4629630E-02
    1      -21.808679
    2      -16.724527
    3      -15.451696
    4      -10.628370
    5       -9.873755
    6       -7.156818
    7       -6.499025
    8       -4.658433
    9       -1.199041
   10        0.999679
   11        1.804778
   12        2.200160
 
  0.8333333E-01  0.1388889E+00  0.0000000E+00  0.4629630E-02
    1      -21.777816
    2      -17.074195
    3      -15.062138
    4      -10.594447
    5       -9.837273
    6       -7.287676
    7       -6.515464
    8       -4.859130
    9       -0.962945
   10        1.041665
   11        1.847135
   12        2.243153
 
  0.1250000E+00  0.1388889E+00  0.0000000E+00  0.4629630E-02
    1      -21.726403
    2      -17.455509
    3      -14.614949
    4      -10.537828
    5       -9.776533
    6       -7.477022
    7       -6.569157
    8       -5.144963
    9       -0.618701
   10        1.111654
   11        1.917715
   12        2.314811
 
  0.1666667E+00  0.1388889E+00  0.0000000E+00  0.4629630E-02
    1      -21.654480
    2      -17.836390
    3      -14.143165
    4      -10.458377
    5       -9.691634
    6       -7.706364
    7       -6.674387
    8       -5.478601
    9       -0.204510
   10        1.209653
   11        2.016496
   12        2.415137
 
  0.2083333E+00  0.1388889E+00  0.0000000E+00  0.4629630E-02
    1      -21.562097
    2      -18.207434
    3      -13.657599
    4      -10.355857
    5       -9.582720
    6       -7.963985
    7       -6.836341
    8       -5.834945
    9        0.253349
   10        1.335662
   11        2.143448
   12        2.544134
 
  0.2500000E+00  0.1388889E+00  0.0000000E+00  0.4629630E-02
    1      -21.449327
    2      -18.564836
    3      -13.164016
    4      -10.229890
    5       -9.449981
    6       -8.242697
    7       -7.053376
    8       -6.198487
    9        0.737911
   10        1.489666
   11        2.298526
   12        2.701803
 
  0.2916667E+00  0.1388889E+00  0.0000000E+00  0.4629630E-02
    1      -21.316256
    2      -18.906646
    3      -12.666982
    4      -10.079888
    5       -9.293660
    6       -8.538560
    7       -7.318767
    8       -6.559641
    9        1.237891
   10        1.671629
   11        2.481672
   12        2.888140
 
  0.3333333E+00  0.1388889E+00  0.0000000E+00  0.4629630E-02
    1      -21.162992
    2      -19.231687
    3      -12.171091
    4       -9.904972
    5       -9.114066
    6       -8.850422
    7       -7.621959
    8       -6.912279
    9        1.745276
   10        1.881500
   11        2.692812
   12        3.103140
 
  0.3750000E+00  0.1388889E+00  0.0000000E+00  0.4629630E-02
    1      -20.989663
    2      -19.539162
    3      -11.681506
    4       -9.703917
    5       -9.179754
    6       -8.911579
    7       -7.949569
    8       -7.252313
    9        2.119210
   10        2.253954
   11        2.931845
   12        3.346794
 
  0.4166667E+00  0.1388889E+00  0.0000000E+00  0.4629630E-02
    1      -20.796423
    2      -19.828488
    3      -11.204156
    4       -9.530235
    5       -9.475211
    6       -8.686669
    7       -8.286501
    8       -7.576902
    9        2.384680
   10        2.758954
   11        3.198639
   12        3.619093
 
  0.4583333E+00  0.1388889E+00  0.0000000E+00  0.4629630E-02
    1      -20.583453
    2      -20.099211
    3      -10.745516
    4       -9.906463
    5       -9.217486
    6       -8.617693
    7       -8.439920
    8       -7.883993
    9        2.677811
   10        3.255988
   11        3.346558
   12        3.492975
 
  0.5000000E+00  0.1388889E+00  0.0000000E+00  0.2314815E-02
    1      -20.350965
    2      -20.350965
    3      -10.311642
    4      -10.311642
    5       -8.930635
    6       -8.930635
    7       -8.172056
    8       -8.172056
    9        2.998488
   10        2.998488
   11        3.739505
   12        3.739507
 
  0.0000000E+00  0.1666667E+00  0.0000000E+00  0.2314815E-02
    1      -21.673706
    2      -16.418817
    3      -15.539427
    4      -11.100097
    5       -9.714123
    6       -7.545596
    7       -6.799176
    8       -4.408845
    9       -1.385199
   10        1.183520
   11        1.990609
   12        2.388728
 
  0.4166667E-01  0.1666667E+00  0.0000000E+00  0.4629630E-02
    1      -21.663433
    2      -16.598675
    3      -15.347321
    4      -11.088031
    5       -9.702015
    6       -7.597138
    7       -6.791677
    8       -4.485464
    9       -1.298367
   10        1.197502
   11        2.004705
   12        2.403057
 
  0.8333333E-01  0.1666667E+00  0.0000000E+00  0.4629630E-02
    1      -21.632621
    2      -16.946445
    3      -14.963075
    4      -11.051736
    5       -9.665710
    6       -7.735682
    7       -6.785112
    8       -4.692442
    9       -1.060914
   10        1.239453
   11        2.046988
   12        2.446043
 
  0.1250000E+00  0.1666667E+00  0.0000000E+00  0.4629630E-02
    1      -21.581294
    2      -17.325422
    3      -14.524203
    4      -10.990904
    5       -9.605268
    6       -7.932800
    7       -6.807196
    8       -4.983968
    9       -0.719149
   10        1.309389
   11        2.117443
   12        2.517692
 
  0.1666667E+00  0.1666667E+00  0.0000000E+00  0.4629630E-02
    1      -21.509490
    2      -17.704082
    3      -14.063659
    4      -10.904971
    5       -9.520788
    6       -8.167359
    7       -6.877129
    8       -5.321219
    9       -0.312688
   10        1.407326
   11        2.216041
   12        2.618007
 
  0.2083333E+00  0.1666667E+00  0.0000000E+00  0.4629630E-02
    1      -21.417266
    2      -18.073153
    3      -13.592876
    4      -10.793026
    5       -9.412416
    6       -8.426223
    7       -7.004170
    8       -5.679240
    9        0.132447
   10        1.533274
   11        2.342741
   12        2.746995
 
  0.2500000E+00  0.1666667E+00  0.0000000E+00  0.4629630E-02
    1      -21.304697
    2      -18.428840
    3      -13.118705
    4      -10.653689
    5       -9.280343
    6       -8.701163
    7       -7.190292
    8       -6.043076
    9        0.600026
   10        1.687227
   11        2.497485
   12        2.904658
 
  0.2916667E+00  0.1666667E+00  0.0000000E+00  0.4629630E-02
    1      -21.171872
    2      -18.769174
    3      -12.647256
    4      -10.484977
    5       -9.124815
    6       -8.987041
    7       -7.432094
    8       -6.403640
    9        1.079529
   10        1.869152
   11        2.680193
   12        3.090995
 
  0.3333333E+00  0.1666667E+00  0.0000000E+00  0.4629630E-02
    1      -21.018905
    2      -19.092948
    3      -12.185079
    4      -10.284252
    5       -9.281031
    6       -8.946142
    7       -7.722140
    8       -6.755168
    9        1.563654
   10        2.078995
   11        2.890749
   12        3.306001
 
  0.3750000E+00  0.1666667E+00  0.0000000E+00  0.4629630E-02
    1      -20.845932
    2      -19.399338
    3      -11.739331
    4      -10.048533
    5       -9.582418
    6       -8.744703
    7       -8.050007
    8       -7.093815
    9        2.046969
   10        2.316681
   11        3.128969
   12        3.549667
 
  0.4166667E+00  0.1666667E+00  0.0000000E+00  0.4629630E-02
    1      -20.653114
    2      -19.687734
    3      -11.316933
    4       -9.892671
    5       -9.775606
    6       -8.520967
    7       -8.403044
    8       -7.416897
    9        2.525163
   10        2.582118
   11        3.394427
   12        3.821982
 
  0.4583333E+00  0.1666667E+00  0.0000000E+00  0.4629630E-02
    1      -20.440640
    2      -19.957662
    3      -10.922609
    4      -10.215561
    5       -9.466187
    6       -8.766881
    7       -8.275510
    8       -7.722463
    9        2.875198
   10        2.994544
   11        3.543749
   12        3.682981
 
  0.5000000E+00  0.1666667E+00  0.0000000E+00  0.2314815E-02
    1      -20.208735
    2      -20.208735
    3      -10.556812
    4      -10.556812
    5       -9.126160
    6       -9.126160
    7       -8.009044
    8       -8.009044
    9        3.195793
   10        3.195793
   11        3.451093
   12        3.451093
 