<?xml version="1.0" encoding="ISO-8859-1"?>
<modeling>
 <generator>
  <i name="program" type="string">vasp </i>
  <i name="version" type="string">5.3.5  </i>
  <i name="subversion" type="string">31Mar14 (build Mar 02 2015 18:14:16) complex                          parallel </i>
  <i name="platform" type="string">LinuxIFC </i>
  <i name="date" type="string">2018 08 09 </i>
  <i name="time" type="string">20:03:22 </i>
 </generator>
 <incar>
  <i type="string" name="SYSTEM">  gr</i>
  <i type="string" name="PREC">accurate : accuracy</i>
  <i type="string" name="ALGO"> FAST.</i>
  <i type="int" name="NELM">   100</i>
  <i type="int" name="NELMDL">    -3</i>
  <i type="int" name="NELMIN">     5</i>
  <i type="int" name="IBRION">     1</i>
  <i name="EDIFF">      0.00000000</i>
  <i name="EDIFFG">     -0.00000100</i>
  <i type="int" name="NSW">   400</i>
  <i type="int" name="ISIF">     2</i>
  <i name="ENCUT">   2000.00000000</i>
  <i type="int" name="ISMEAR">     0</i>
  <i name="SIGMA">      0.05000000</i>
  <i type="int" name="NWRITE">     2</i>
  <i type="logical" name="LWAVE"> F  </i>
  <i type="logical" name="LCHARG"> F  </i>
  <i type="int" name="NELM">   100</i>
 </incar>
 <kpoints>
  <generation param="Gamma">
   <v type="int" name="divisions">      24       36        1 </v>
   <v name="usershift">      0.00000000       0.00000000       0.00000000 </v>
   <v name="genvec1">      0.04166667       0.00000000       0.00000000 </v>
   <v name="genvec2">      0.00000000       0.02777778       0.00000000 </v>
   <v name="genvec3">      0.00000000       0.00000000       1.00000000 </v>
   <v name="shift">      0.00000000       0.00000000       0.00000000 </v>
  </generation>
  <varray name="kpointlist" >
   <v>       0.00000000       0.00000000       0.00000000 </v>
   <v>       0.04166667       0.00000000       0.00000000 </v>
   <v>       0.08333333       0.00000000       0.00000000 </v>
   <v>       0.12500000       0.00000000       0.00000000 </v>
   <v>       0.16666667       0.00000000       0.00000000 </v>
   <v>       0.20833333       0.00000000       0.00000000 </v>
   <v>       0.25000000       0.00000000       0.00000000 </v>
   <v>       0.29166667       0.00000000       0.00000000 </v>
   <v>       0.33333333       0.00000000       0.00000000 </v>
   <v>       0.37500000       0.00000000       0.00000000 </v>
   <v>       0.41666667       0.00000000       0.00000000 </v>
   <v>       0.45833333       0.00000000       0.00000000 </v>
   <v>       0.50000000       0.00000000       0.00000000 </v>
   <v>       0.00000000       0.02777778       0.00000000 </v>
   <v>       0.04166667       0.02777778       0.00000000 </v>
   <v>       0.08333333       0.02777778       0.00000000 </v>
   <v>       0.12500000       0.02777778       0.00000000 </v>
   <v>       0.16666667       0.02777778       0.00000000 </v>
   <v>       0.20833333       0.02777778       0.00000000 </v>
   <v>       0.25000000       0.02777778       0.00000000 </v>
   <v>       0.29166667       0.02777778       0.00000000 </v>
   <v>       0.33333333       0.02777778       0.00000000 </v>
   <v>       0.37500000       0.02777778       0.00000000 </v>
   <v>       0.41666667       0.02777778       0.00000000 </v>
   <v>       0.45833333       0.02777778       0.00000000 </v>
   <v>       0.50000000       0.02777778       0.00000000 </v>
   <v>       0.00000000       0.05555556       0.00000000 </v>
   <v>       0.04166667       0.05555556       0.00000000 </v>
   <v>       0.08333333       0.05555556       0.00000000 </v>
   <v>       0.12500000       0.05555556       0.00000000 </v>
   <v>       0.16666667       0.05555556       0.00000000 </v>
   <v>       0.20833333       0.05555556       0.00000000 </v>
   <v>       0.25000000       0.05555556       0.00000000 </v>
   <v>       0.29166667       0.05555556       0.00000000 </v>
   <v>       0.33333333       0.05555556       0.00000000 </v>
   <v>       0.37500000       0.05555556       0.00000000 </v>
   <v>       0.41666667       0.05555556       0.00000000 </v>
   <v>       0.45833333       0.05555556       0.00000000 </v>
   <v>       0.50000000       0.05555556       0.00000000 </v>
   <v>       0.00000000       0.08333333       0.00000000 </v>
   <v>       0.04166667       0.08333333       0.00000000 </v>
   <v>       0.08333333       0.08333333       0.00000000 </v>
   <v>       0.12500000       0.08333333       0.00000000 </v>
   <v>       0.16666667       0.08333333       0.00000000 </v>
   <v>       0.20833333       0.08333333       0.00000000 </v>
   <v>       0.25000000       0.08333333       0.00000000 </v>
   <v>       0.29166667       0.08333333       0.00000000 </v>
   <v>       0.33333333       0.08333333       0.00000000 </v>
   <v>       0.37500000       0.08333333       0.00000000 </v>
   <v>       0.41666667       0.08333333       0.00000000 </v>
   <v>       0.45833333       0.08333333       0.00000000 </v>
   <v>       0.50000000       0.08333333       0.00000000 </v>
   <v>       0.00000000       0.11111111       0.00000000 </v>
   <v>       0.04166667       0.11111111       0.00000000 </v>
   <v>       0.08333333       0.11111111       0.00000000 </v>
   <v>       0.12500000       0.11111111       0.00000000 </v>
   <v>       0.16666667       0.11111111       0.00000000 </v>
   <v>       0.20833333       0.11111111       0.00000000 </v>
   <v>       0.25000000       0.11111111       0.00000000 </v>
   <v>       0.29166667       0.11111111       0.00000000 </v>
   <v>       0.33333333       0.11111111       0.00000000 </v>
   <v>       0.37500000       0.11111111       0.00000000 </v>
   <v>       0.41666667       0.11111111       0.00000000 </v>
   <v>       0.45833333       0.11111111       0.00000000 </v>
   <v>       0.50000000       0.11111111       0.00000000 </v>
   <v>       0.00000000       0.13888889       0.00000000 </v>
   <v>       0.04166667       0.13888889       0.00000000 </v>
   <v>       0.08333333       0.13888889       0.00000000 </v>
   <v>       0.12500000       0.13888889       0.00000000 </v>
   <v>       0.16666667       0.13888889       0.00000000 </v>
   <v>       0.20833333       0.13888889       0.00000000 </v>
   <v>       0.25000000       0.13888889       0.00000000 </v>
   <v>       0.29166667       0.13888889       0.00000000 </v>
   <v>       0.33333333       0.13888889       0.00000000 </v>
   <v>       0.37500000       0.13888889       0.00000000 </v>
   <v>       0.41666667       0.13888889       0.00000000 </v>
   <v>       0.45833333       0.13888889       0.00000000 </v>
   <v>       0.50000000       0.13888889       0.00000000 </v>
   <v>       0.00000000       0.16666667       0.00000000 </v>
   <v>       0.04166667       0.16666667       0.00000000 </v>
   <v>       0.08333333       0.16666667       0.00000000 </v>
   <v>       0.12500000       0.16666667       0.00000000 </v>
   <v>       0.16666667       0.16666667       0.00000000 </v>
   <v>       0.20833333       0.16666667       0.00000000 </v>
   <v>       0.25000000       0.16666667       0.00000000 </v>
   <v>       0.29166667       0.16666667       0.00000000 </v>
   <v>       0.33333333       0.16666667       0.00000000 </v>
   <v>       0.37500000       0.16666667       0.00000000 </v>
   <v>       0.41666667       0.16666667       0.00000000 </v>
   <v>       0.45833333       0.16666667       0.00000000 </v>
   <v>       0.50000000       0.16666667       0.00000000 </v>
   <v>       0.00000000       0.19444444       0.00000000 </v>
   <v>       0.04166667       0.19444444       0.00000000 </v>
   <v>       0.08333333       0.19444444       0.00000000 </v>
   <v>       0.12500000       0.19444444       0.00000000 </v>
   <v>       0.16666667       0.19444444       0.00000000 </v>
   <v>       0.20833333       0.19444444       0.00000000 </v>
   <v>       0.25000000       0.19444444       0.00000000 </v>
   <v>       0.29166667       0.19444444       0.00000000 </v>
   <v>       0.33333333       0.19444444       0.00000000 </v>
   <v>       0.37500000       0.19444444       0.00000000 </v>
   <v>       0.41666667       0.19444444       0.00000000 </v>
   <v>       0.45833333       0.19444444       0.00000000 </v>
   <v>       0.50000000       0.19444444       0.00000000 </v>
   <v>       0.00000000       0.22222222       0.00000000 </v>
   <v>       0.04166667       0.22222222       0.00000000 </v>
   <v>       0.08333333       0.22222222       0.00000000 </v>
   <v>       0.12500000       0.22222222       0.00000000 </v>
   <v>       0.16666667       0.22222222       0.00000000 </v>
   <v>       0.20833333       0.22222222       0.00000000 </v>
   <v>       0.25000000       0.22222222       0.00000000 </v>
   <v>       0.29166667       0.22222222       0.00000000 </v>
   <v>       0.33333333       0.22222222       0.00000000 </v>
   <v>       0.37500000       0.22222222       0.00000000 </v>
   <v>       0.41666667       0.22222222       0.00000000 </v>
   <v>       0.45833333       0.22222222       0.00000000 </v>
   <v>       0.50000000       0.22222222       0.00000000 </v>
   <v>       0.00000000       0.25000000       0.00000000 </v>
   <v>       0.04166667       0.25000000       0.00000000 </v>
   <v>       0.08333333       0.25000000       0.00000000 </v>
   <v>       0.12500000       0.25000000       0.00000000 </v>
   <v>       0.16666667       0.25000000       0.00000000 </v>
   <v>       0.20833333       0.25000000       0.00000000 </v>
   <v>       0.25000000       0.25000000       0.00000000 </v>
   <v>       0.29166667       0.25000000       0.00000000 </v>
   <v>       0.33333333       0.25000000       0.00000000 </v>
   <v>       0.37500000       0.25000000       0.00000000 </v>
   <v>       0.41666667       0.25000000       0.00000000 </v>
   <v>       0.45833333       0.25000000       0.00000000 </v>
   <v>       0.50000000       0.25000000       0.00000000 </v>
   <v>       0.00000000       0.27777778       0.00000000 </v>
   <v>       0.04166667       0.27777778       0.00000000 </v>
   <v>       0.08333333       0.27777778       0.00000000 </v>
   <v>       0.12500000       0.27777778       0.00000000 </v>
   <v>       0.16666667       0.27777778       0.00000000 </v>
   <v>       0.20833333       0.27777778       0.00000000 </v>
   <v>       0.25000000       0.27777778       0.00000000 </v>
   <v>       0.29166667       0.27777778       0.00000000 </v>
   <v>       0.33333333       0.27777778       0.00000000 </v>
   <v>       0.37500000       0.27777778       0.00000000 </v>
   <v>       0.41666667       0.27777778       0.00000000 </v>
   <v>       0.45833333       0.27777778       0.00000000 </v>
   <v>       0.50000000       0.27777778       0.00000000 </v>
   <v>       0.00000000       0.30555556       0.00000000 </v>
   <v>       0.04166667       0.30555556       0.00000000 </v>
   <v>       0.08333333       0.30555556       0.00000000 </v>
   <v>       0.12500000       0.30555556       0.00000000 </v>
   <v>       0.16666667       0.30555556       0.00000000 </v>
   <v>       0.20833333       0.30555556       0.00000000 </v>
   <v>       0.25000000       0.30555556       0.00000000 </v>
   <v>       0.29166667       0.30555556       0.00000000 </v>
   <v>       0.33333333       0.30555556       0.00000000 </v>
   <v>       0.37500000       0.30555556       0.00000000 </v>
   <v>       0.41666667       0.30555556       0.00000000 </v>
   <v>       0.45833333       0.30555556       0.00000000 </v>
   <v>       0.50000000       0.30555556       0.00000000 </v>
   <v>       0.00000000       0.33333333       0.00000000 </v>
   <v>       0.04166667       0.33333333       0.00000000 </v>
   <v>       0.08333333       0.33333333       0.00000000 </v>
   <v>       0.12500000       0.33333333       0.00000000 </v>
   <v>       0.16666667       0.33333333       0.00000000 </v>
   <v>       0.20833333       0.33333333       0.00000000 </v>
   <v>       0.25000000       0.33333333       0.00000000 </v>
   <v>       0.29166667       0.33333333       0.00000000 </v>
   <v>       0.33333333       0.33333333       0.00000000 </v>
   <v>       0.37500000       0.33333333       0.00000000 </v>
   <v>       0.41666667       0.33333333       0.00000000 </v>
   <v>       0.45833333       0.33333333       0.00000000 </v>
   <v>       0.50000000       0.33333333       0.00000000 </v>
   <v>       0.00000000       0.36111111       0.00000000 </v>
   <v>       0.04166667       0.36111111       0.00000000 </v>
   <v>       0.08333333       0.36111111       0.00000000 </v>
   <v>       0.12500000       0.36111111       0.00000000 </v>
   <v>       0.16666667       0.36111111       0.00000000 </v>
   <v>       0.20833333       0.36111111       0.00000000 </v>
   <v>       0.25000000       0.36111111       0.00000000 </v>
   <v>       0.29166667       0.36111111       0.00000000 </v>
   <v>       0.33333333       0.36111111       0.00000000 </v>
   <v>       0.37500000       0.36111111       0.00000000 </v>
   <v>       0.41666667       0.36111111       0.00000000 </v>
   <v>       0.45833333       0.36111111       0.00000000 </v>
   <v>       0.50000000       0.36111111       0.00000000 </v>
   <v>       0.00000000       0.38888889       0.00000000 </v>
   <v>       0.04166667       0.38888889       0.00000000 </v>
   <v>       0.08333333       0.38888889       0.00000000 </v>
   <v>       0.12500000       0.38888889       0.00000000 </v>
   <v>       0.16666667       0.38888889       0.00000000 </v>
   <v>       0.20833333       0.38888889       0.00000000 </v>
   <v>       0.25000000       0.38888889       0.00000000 </v>
   <v>       0.29166667       0.38888889       0.00000000 </v>
   <v>       0.33333333       0.38888889       0.00000000 </v>
   <v>       0.37500000       0.38888889       0.00000000 </v>
   <v>       0.41666667       0.38888889       0.00000000 </v>
   <v>       0.45833333       0.38888889       0.00000000 </v>
   <v>       0.50000000       0.38888889       0.00000000 </v>
   <v>       0.00000000       0.41666667       0.00000000 </v>
   <v>       0.04166667       0.41666667       0.00000000 </v>
   <v>       0.08333333       0.41666667       0.00000000 </v>
   <v>       0.12500000       0.41666667       0.00000000 </v>
   <v>       0.16666667       0.41666667       0.00000000 </v>
   <v>       0.20833333       0.41666667       0.00000000 </v>
   <v>       0.25000000       0.41666667       0.00000000 </v>
   <v>       0.29166667       0.41666667       0.00000000 </v>
   <v>       0.33333333       0.41666667       0.00000000 </v>
   <v>       0.37500000       0.41666667       0.00000000 </v>
   <v>       0.41666667       0.41666667       0.00000000 </v>
   <v>       0.45833333       0.41666667       0.00000000 </v>
   <v>       0.50000000       0.41666667       0.00000000 </v>
   <v>       0.00000000       0.44444444       0.00000000 </v>
   <v>       0.04166667       0.44444444       0.00000000 </v>
   <v>       0.08333333       0.44444444       0.00000000 </v>
   <v>       0.12500000       0.44444444       0.00000000 </v>
   <v>       0.16666667       0.44444444       0.00000000 </v>
   <v>       0.20833333       0.44444444       0.00000000 </v>
   <v>       0.25000000       0.44444444       0.00000000 </v>
   <v>       0.29166667       0.44444444       0.00000000 </v>
   <v>       0.33333333       0.44444444       0.00000000 </v>
   <v>       0.37500000       0.44444444       0.00000000 </v>
   <v>       0.41666667       0.44444444       0.00000000 </v>
   <v>       0.45833333       0.44444444       0.00000000 </v>
   <v>       0.50000000       0.44444444       0.00000000 </v>
   <v>       0.00000000       0.47222222       0.00000000 </v>
   <v>       0.04166667       0.47222222       0.00000000 </v>
   <v>       0.08333333       0.47222222       0.00000000 </v>
   <v>       0.12500000       0.47222222       0.00000000 </v>
   <v>       0.16666667       0.47222222       0.00000000 </v>
   <v>       0.20833333       0.47222222       0.00000000 </v>
   <v>       0.25000000       0.47222222       0.00000000 </v>
   <v>       0.29166667       0.47222222       0.00000000 </v>
   <v>       0.33333333       0.47222222       0.00000000 </v>
   <v>       0.37500000       0.47222222       0.00000000 </v>
   <v>       0.41666667       0.47222222       0.00000000 </v>
   <v>       0.45833333       0.47222222       0.00000000 </v>
   <v>       0.50000000       0.47222222       0.00000000 </v>
   <v>       0.00000000       0.50000000       0.00000000 </v>
   <v>       0.04166667       0.50000000       0.00000000 </v>
   <v>       0.08333333       0.50000000       0.00000000 </v>
   <v>       0.12500000       0.50000000       0.00000000 </v>
   <v>       0.16666667       0.50000000       0.00000000 </v>
   <v>       0.20833333       0.50000000       0.00000000 </v>
   <v>       0.25000000       0.50000000       0.00000000 </v>
   <v>       0.29166667       0.50000000       0.00000000 </v>
   <v>       0.33333333       0.50000000       0.00000000 </v>
   <v>       0.37500000       0.50000000       0.00000000 </v>
   <v>       0.41666667       0.50000000       0.00000000 </v>
   <v>       0.45833333       0.50000000       0.00000000 </v>
   <v>       0.50000000       0.50000000       0.00000000 </v>
  </varray>
  <varray name="weights" >
   <v>       0.00115741 </v>
   <v>       0.00231481 </v>
   <v>       0.00231481 </v>
   <v>       0.00231481 </v>
   <v>       0.00231481 </v>
   <v>       0.00231481 </v>
   <v>       0.00231481 </v>
   <v>       0.00231481 </v>
   <v>       0.00231481 </v>
   <v>       0.00231481 </v>
   <v>       0.00231481 </v>
   <v>       0.00231481 </v>
   <v>       0.00115741 </v>
   <v>       0.00231481 </v>
   <v>       0.00462963 </v>
   <v>       0.00462963 </v>
   <v>       0.00462963 </v>
   <v>       0.00462963 </v>
   <v>       0.00462963 </v>
   <v>       0.00462963 </v>
   <v>       0.00462963 </v>
   <v>       0.00462963 </v>
   <v>       0.00462963 </v>
   <v>       0.00462963 </v>
   <v>       0.00462963 </v>
   <v>       0.00231481 </v>
   <v>       0.00231481 </v>
   <v>       0.00462963 </v>
   <v>       0.00462963 </v>
   <v>       0.00462963 </v>
   <v>       0.00462963 </v>
   <v>       0.00462963 </v>
   <v>       0.00462963 </v>
   <v>       0.00462963 </v>
   <v>       0.00462963 </v>
   <v>       0.00462963 </v>
   <v>       0.00462963 </v>
   <v>       0.00462963 </v>
   <v>       0.00231481 </v>
   <v>       0.00231481 </v>
   <v>       0.00462963 </v>
   <v>       0.00462963 </v>
   <v>       0.00462963 </v>
   <v>       0.00462963 </v>
   <v>       0.00462963 </v>
   <v>       0.00462963 </v>
   <v>       0.00462963 </v>
   <v>       0.00462963 </v>
   <v>       0.00462963 </v>
   <v>       0.00462963 </v>
   <v>       0.00462963 </v>
   <v>       0.00231481 </v>
   <v>       0.00231481 </v>
   <v>       0.00462963 </v>
   <v>       0.00462963 </v>
   <v>       0.00462963 </v>
   <v>       0.00462963 </v>
   <v>       0.00462963 </v>
   <v>       0.00462963 </v>
   <v>       0.00462963 </v>
   <v>       0.00462963 </v>
   <v>       0.00462963 </v>
   <v>       0.00462963 </v>
   <v>       0.00462963 </v>
   <v>       0.00231481 </v>
   <v>       0.00231481 </v>
   <v>       0.00462963 </v>
   <v>       0.00462963 </v>
   <v>       0.00462963 </v>
   <v>       0.00462963 </v>
   <v>       0.00462963 </v>
   <v>       0.00462963 </v>
   <v>       0.00462963 </v>
   <v>       0.00462963 </v>
   <v>       0.00462963 </v>
   <v>       0.00462963 </v>
   <v>       0.00462963 </v>
   <v>       0.00231481 </v>
   <v>       0.00231481 </v>
   <v>       0.00462963 </v>
   <v>       0.00462963 </v>
   <v>       0.00462963 </v>
   <v>       0.00462963 </v>
   <v>       0.00462963 </v>
   <v>       0.00462963 </v>
   <v>       0.00462963 </v>
   <v>       0.00462963 </v>
   <v>       0.00462963 </v>
   <v>       0.00462963 </v>
   <v>       0.00462963 </v>
   <v>       0.00231481 </v>
   <v>       0.00231481 </v>
   <v>       0.00462963 </v>
   <v>       0.00462963 </v>
   <v>       0.00462963 </v>
   <v>       0.00462963 </v>
   <v>       0.00462963 </v>
   <v>       0.00462963 </v>
   <v>       0.00462963 </v>
   <v>       0.00462963 </v>
   <v>       0.00462963 </v>
   <v>       0.00462963 </v>
   <v>       0.00462963 </v>
   <v>       0.00231481 </v>
   <v>       0.00231481 </v>
   <v>       0.00462963 </v>
   <v>       0.00462963 </v>
   <v>       0.00462963 </v>
   <v>       0.00462963 </v>
   <v>       0.00462963 </v>
   <v>       0.00462963 </v>
   <v>       0.00462963 </v>
   <v>       0.00462963 </v>
   <v>       0.00462963 </v>
   <v>       0.00462963 </v>
   <v>       0.00462963 </v>
   <v>       0.00231481 </v>
   <v>       0.00231481 </v>
   <v>       0.00462963 </v>
   <v>       0.00462963 </v>
   <v>       0.00462963 </v>
   <v>       0.00462963 </v>
   <v>       0.00462963 </v>
   <v>       0.00462963 </v>
   <v>       0.00462963 </v>
   <v>       0.00462963 </v>
   <v>       0.00462963 </v>
   <v>       0.00462963 </v>
   <v>       0.00462963 </v>
   <v>       0.00231481 </v>
   <v>       0.00231481 </v>
   <v>       0.00462963 </v>
   <v>       0.00462963 </v>
   <v>       0.00462963 </v>
   <v>       0.00462963 </v>
   <v>       0.00462963 </v>
   <v>       0.00462963 </v>
   <v>       0.00462963 </v>
   <v>       0.00462963 </v>
   <v>       0.00462963 </v>
   <v>       0.00462963 </v>
   <v>       0.00462963 </v>
   <v>       0.00231481 </v>
   <v>       0.00231481 </v>
   <v>       0.00462963 </v>
   <v>       0.00462963 </v>
   <v>       0.00462963 </v>
   <v>       0.00462963 </v>
   <v>       0.00462963 </v>
   <v>       0.00462963 </v>
   <v>       0.00462963 </v>
   <v>       0.00462963 </v>
   <v>       0.00462963 </v>
   <v>       0.00462963 </v>
   <v>       0.00462963 </v>
   <v>       0.00231481 </v>
   <v>       0.00231481 </v>
   <v>       0.00462963 </v>
   <v>       0.00462963 </v>
   <v>       0.00462963 </v>
   <v>       0.00462963 </v>
   <v>       0.00462963 </v>
   <v>       0.00462963 </v>
   <v>       0.00462963 </v>
   <v>       0.00462963 </v>
   <v>       0.00462963 </v>
   <v>       0.00462963 </v>
   <v>       0.00462963 </v>
   <v>       0.00231481 </v>
   <v>       0.00231481 </v>
   <v>       0.00462963 </v>
   <v>       0.00462963 </v>
   <v>       0.00462963 </v>
   <v>       0.00462963 </v>
   <v>       0.00462963 </v>
   <v>       0.00462963 </v>
   <v>       0.00462963 </v>
   <v>       0.00462963 </v>
   <v>       0.00462963 </v>
   <v>       0.00462963 </v>
   <v>       0.00462963 </v>
   <v>       0.00231481 </v>
   <v>       0.00231481 </v>
   <v>       0.00462963 </v>
   <v>       0.00462963 </v>
   <v>       0.00462963 </v>
   <v>       0.00462963 </v>
   <v>       0.00462963 </v>
   <v>       0.00462963 </v>
   <v>       0.00462963 </v>
   <v>       0.00462963 </v>
   <v>       0.00462963 </v>
   <v>       0.00462963 </v>
   <v>       0.00462963 </v>
   <v>       0.00231481 </v>
   <v>       0.00231481 </v>
   <v>       0.00462963 </v>
   <v>       0.00462963 </v>
   <v>       0.00462963 </v>
   <v>       0.00462963 </v>
   <v>       0.00462963 </v>
   <v>       0.00462963 </v>
   <v>       0.00462963 </v>
   <v>       0.00462963 </v>
   <v>       0.00462963 </v>
   <v>       0.00462963 </v>
   <v>       0.00462963 </v>
   <v>       0.00231481 </v>
   <v>       0.00231481 </v>
   <v>       0.00462963 </v>
   <v>       0.00462963 </v>
   <v>       0.00462963 </v>
   <v>       0.00462963 </v>
   <v>       0.00462963 </v>
   <v>       0.00462963 </v>
   <v>       0.00462963 </v>
   <v>       0.00462963 </v>
   <v>       0.00462963 </v>
   <v>       0.00462963 </v>
   <v>       0.00462963 </v>
   <v>       0.00231481 </v>
   <v>       0.00231481 </v>
   <v>       0.00462963 </v>
   <v>       0.00462963 </v>
   <v>       0.00462963 </v>
   <v>       0.00462963 </v>
   <v>       0.00462963 </v>
   <v>       0.00462963 </v>
   <v>       0.00462963 </v>
   <v>       0.00462963 </v>
   <v>       0.00462963 </v>
   <v>       0.00462963 </v>
   <v>       0.00462963 </v>
   <v>       0.00231481 </v>
   <v>       0.00115741 </v>
   <v>       0.00231481 </v>
   <v>       0.00231481 </v>
   <v>       0.00231481 </v>
   <v>       0.00231481 </v>
   <v>       0.00231481 </v>
   <v>       0.00231481 </v>
   <v>       0.00231481 </v>
   <v>       0.00231481 </v>
   <v>       0.00231481 </v>
   <v>       0.00231481 </v>
   <v>       0.00231481 </v>
   <v>       0.00115741 </v>
  </varray>
 </kpoints>
 <parameters>
  <separator name="general" >
   <i type="string" name="SYSTEM">gr</i>
   <i type="logical" name="LCOMPAT"> F  </i>
  </separator>
  <separator name="electronic" >
   <i type="string" name="PREC">accura</i>
   <i name="ENMAX">   2000.00000000</i>
   <i name="ENAUG">    644.87300000</i>
   <i name="EDIFF">      0.00000000</i>
   <i type="int" name="IALGO">    68</i>
   <i type="int" name="IWAVPR">    11</i>
   <i type="int" name="NBANDS">    12</i>
   <i name="NELECT">     16.00000000</i>
   <i type="int" name="TURBO">     0</i>
   <i type="int" name="IRESTART">     0</i>
   <i type="int" name="NREBOOT">     0</i>
   <i type="int" name="NMIN">     0</i>
   <i name="EREF">      0.00000000</i>
   <separator name="electronic smearing" >
    <i type="int" name="ISMEAR">     0</i>
    <i name="SIGMA">      0.05000000</i>
    <i name="KSPACING">      0.50000000</i>
    <i type="logical" name="KGAMMA"> T  </i>
   </separator>
   <separator name="electronic projectors" >
    <i type="logical" name="LREAL"> F  </i>
    <v name="ROPT">      0.00000000</v>
    <i type="int" name="LMAXPAW">  -100</i>
    <i type="int" name="LMAXMIX">     2</i>
    <i type="logical" name="NLSPLINE"> F  </i>
   </separator>
   <separator name="electronic startup" >
    <i type="int" name="ISTART">     0</i>
    <i type="int" name="ICHARG">     2</i>
    <i type="int" name="INIWAV">     1</i>
   </separator>
   <separator name="electronic spin" >
    <i type="int" name="ISPIN">     1</i>
    <i type="logical" name="LNONCOLLINEAR"> F  </i>
    <v name="MAGMOM">      1.00000000      1.00000000      1.00000000      1.00000000</v>
    <i name="NUPDOWN">     -1.00000000</i>
    <i type="logical" name="LSORBIT"> F  </i>
    <v name="SAXIS">      0.00000000      0.00000000      1.00000000</v>
    <i type="logical" name="LSPIRAL"> F  </i>
    <v name="QSPIRAL">      0.00000000      0.00000000      0.00000000</v>
    <i type="logical" name="LZEROZ"> F  </i>
   </separator>
   <separator name="electronic exchange-correlation" >
    <i type="logical" name="LASPH"> F  </i>
    <i type="logical" name="LMETAGGA"> F  </i>
   </separator>
   <separator name="electronic convergence" >
    <i type="int" name="NELM">   100</i>
    <i type="int" name="NELMDL">    -3</i>
    <i type="int" name="NELMIN">     5</i>
    <i name="ENINI">   2000.00000000</i>
    <separator name="electronic convergence detail" >
     <i type="logical" name="LDIAG"> T  </i>
     <i type="logical" name="LSUBROT"> F  </i>
     <i name="WEIMIN">      0.00100000</i>
     <i name="EBREAK">      0.00000000</i>
     <i name="DEPER">      0.30000000</i>
     <i type="int" name="NRMM">     4</i>
     <i name="TIME">      0.40000000</i>
    </separator>
   </separator>
   <separator name="electronic mixer" >
    <i name="AMIX">      0.40000000</i>
    <i name="BMIX">      1.00000000</i>
    <i name="AMIN">      0.10000000</i>
    <i name="AMIX_MAG">      1.60000000</i>
    <i name="BMIX_MAG">      1.00000000</i>
    <separator name="electronic mixer details" >
     <i type="int" name="IMIX">     4</i>
     <i type="int" name="MAXMIX">   -45</i>
     <i name="WC">    100.00000000</i>
     <i type="int" name="INIMIX">     1</i>
     <i type="int" name="MIXPRE">     1</i>
     <i type="int" name="MREMOVE">     5</i>
    </separator>
   </separator>
   <separator name="electronic dipolcorrection" >
    <i type="logical" name="LDIPOL"> F  </i>
    <i type="logical" name="LMONO"> F  </i>
    <i type="int" name="IDIPOL">     0</i>
    <i name="EPSILON">      1.00000000</i>
    <v name="DIPOL">   -100.00000000   -100.00000000   -100.00000000</v>
    <i name="EFIELD">      0.00000000</i>
   </separator>
  </separator>
  <separator name="grids" >
   <i type="int" name="NGX">    64</i>
   <i type="int" name="NGY">    40</i>
   <i type="int" name="NGZ">   288</i>
   <i type="int" name="NGXF">   128</i>
   <i type="int" name="NGYF">    80</i>
   <i type="int" name="NGZF">   576</i>
   <i type="logical" name="ADDGRID"> F  </i>
  </separator>
  <separator name="ionic" >
   <i type="int" name="NSW">   400</i>
   <i type="int" name="IBRION">     1</i>
   <i type="int" name="ISIF">     2</i>
   <i name="PSTRESS">      0.00000000</i>
   <i name="EDIFFG">     -0.00000100</i>
   <i type="int" name="NFREE">     0</i>
   <i name="POTIM">      0.50000000</i>
   <i name="SMASS">     -3.00000000</i>
   <i name="SCALEE">      1.00000000</i>
  </separator>
  <separator name="ionic md" >
   <i name="TEBEG">      0.00010000</i>
   <i name="TEEND">      0.00010000</i>
   <i type="int" name="NBLOCK">     1</i>
   <i type="int" name="KBLOCK">   400</i>
   <i type="int" name="NPACO">   256</i>
   <i name="APACO">     16.00000000</i>
  </separator>
  <separator name="symmetry" >
   <i type="int" name="ISYM">     2</i>
   <i name="SYMPREC">      0.00001000</i>
  </separator>
  <separator name="dos" >
   <i type="logical" name="LORBIT"> F  </i>
   <v name="RWIGS">     -1.00000000</v>
   <i type="int" name="NEDOS">   301</i>
   <i name="EMIN">     10.00000000</i>
   <i name="EMAX">    -10.00000000</i>
   <i name="EFERMI">      0.00000000</i>
  </separator>
  <separator name="writing" >
   <i type="int" name="NWRITE">     2</i>
   <i type="logical" name="LWAVE"> F  </i>
   <i type="logical" name="LCHARG"> F  </i>
   <i type="logical" name="LPARD"> F  </i>
   <i type="logical" name="LVTOT"> F  </i>
   <i type="logical" name="LVHAR"> F  </i>
   <i type="logical" name="LELF"> F  </i>
   <i type="logical" name="LOPTICS"> F  </i>
   <v name="STM">      0.00000000      0.00000000      0.00000000      0.00000000      0.00000000      0.00000000      0.00000000</v>
  </separator>
  <separator name="performance" >
   <i type="int" name="NPAR">     4</i>
   <i type="int" name="NSIM">     4</i>
   <i type="int" name="NBLK">    -1</i>
   <i type="logical" name="LPLANE"> T  </i>
   <i type="logical" name="LSCALAPACK"> F  </i>
   <i type="logical" name="LSCAAWARE"> F  </i>
   <i type="logical" name="LSCALU"> F  </i>
   <i type="logical" name="LASYNC"> F  </i>
   <i type="logical" name="LORBITALREAL"> F  </i>
  </separator>
  <separator name="miscellaneous" >
   <i type="int" name="IDIOT">     3</i>
   <i type="logical" name="LMUSIC"> F  </i>
   <v name="POMASS">     12.01100000</v>
   <v name="DARWINR">      0.00000000</v>
   <v name="DARWINV">      1.00000000</v>
   <i type="logical" name="LCORR"> T  </i>
  </separator>
  <i type="logical" name="GGA_COMPAT"> T  </i>
  <i type="logical" name="LBERRY"> F  </i>
  <i type="int" name="ICORELEVEL">     0</i>
  <i type="logical" name="LDAU"> F  </i>
  <i type="int" name="I_CONSTRAINED_M">     0</i>
  <separator name="electronic exchange-correlation" >
   <i type="string" name="GGA">--</i>
   <i type="int" name="VOSKOWN">     0</i>
   <i type="logical" name="LHFCALC"> F  </i>
   <i type="string" name="PRECFOCK"></i>
   <i type="logical" name="LSYMGRAD"> F  </i>
   <i type="logical" name="LHFONE"> F  </i>
   <i type="logical" name="LRHFCALC"> F  </i>
   <i type="logical" name="LTHOMAS"> F  </i>
   <i type="logical" name="LMODELHF"> F  </i>
   <i name="ENCUT4O">     -1.00000000</i>
   <i type="int" name="EXXOEP">     0</i>
   <i type="int" name="FOURORBIT">     0</i>
   <i name="AEXX">      0.00000000</i>
   <i name="HFALPHA">      0.00000000</i>
   <i name="MCALPHA">      0.00000000</i>
   <i name="ALDAX">      1.00000000</i>
   <i name="AGGAX">      1.00000000</i>
   <i name="ALDAC">      1.00000000</i>
   <i name="AGGAC">      1.00000000</i>
   <i type="int" name="NKREDX">     1</i>
   <i type="int" name="NKREDY">     1</i>
   <i type="int" name="NKREDZ">     1</i>
   <i type="logical" name="SHIFTRED"> F  </i>
   <i type="logical" name="ODDONLY"> F  </i>
   <i type="logical" name="EVENONLY"> F  </i>
   <i type="int" name="LMAXFOCK">     0</i>
   <i type="int" name="NMAXFOCKAE">     0</i>
   <i type="logical" name="LFOCKAEDFT"> F  </i>
   <i name="HFSCREEN">      0.00000000</i>
   <i name="HFSCREENC">      0.00000000</i>
   <i type="int" name="NBANDSGWLOW">     0</i>
  </separator>
  <separator name="vdW DFT" >
   <i type="logical" name="LUSE_VDW"> F  </i>
   <i name="Zab_VDW">     -0.84910000</i>
   <i name="PARAM1">      0.12340000</i>
   <i name="PARAM2">      1.00000000</i>
   <i name="PARAM3">      0.00000000</i>
  </separator>
  <separator name="model GW" >
   <i type="int" name="MODEL_GW">     0</i>
   <i name="MODEL_EPS0">     31.62568521</i>
   <i name="MODEL_ALPHA">      1.00000000</i>
  </separator>
  <separator name="linear response parameters" >
   <i type="logical" name="LEPSILON"> F  </i>
   <i type="logical" name="LRPA"> F  </i>
   <i type="logical" name="LNABLA"> F  </i>
   <i type="logical" name="LVEL"> F  </i>
   <i type="int" name="KINTER">     0</i>
   <i name="CSHIFT">      0.10000000</i>
   <i name="OMEGAMAX">     -1.00000000</i>
   <i name="DEG_THRESHOLD">      0.00200000</i>
  </separator>
  <separator name="orbital magnetization" >
   <i type="logical" name="NUCIND"> F  </i>
   <v name="MAGPOS">      0.00000000      0.00000000      0.00000000</v>
   <i type="logical" name="LNICSALL"> T  </i>
   <i type="logical" name="ORBITALMAG"> F  </i>
   <i type="logical" name="LMAGBLOCH"> F  </i>
   <i type="logical" name="LCHIMAG"> F  </i>
   <i type="logical" name="LGAUGE"> T  </i>
   <i type="int" name="MAGATOM">     0</i>
   <v name="MAGDIPOL">      0.00000000      0.00000000      0.00000000</v>
   <v name="AVECCONST">      0.00000000      0.00000000      0.00000000</v>
  </separator>
  <separator name="response functions" >
   <i type="logical" name="LADDER"> F  </i>
   <i type="logical" name="LFXC"> F  </i>
   <i type="logical" name="LHARTREE"> T  </i>
   <i type="int" name="IBSE">     0</i>
   <i type="logical" name="LTCTE"> F  </i>
   <i type="logical" name="LTETE"> F  </i>
   <i type="logical" name="LTRIPLET"> F  </i>
   <i type="logical" name="LFXCEPS"> F  </i>
   <i type="logical" name="LFXHEG"> F  </i>
   <i type="logical" name="L2ORDER"> F  </i>
   <i type="logical" name="LUSEW"> F  </i>
   <i name="ENCUTGW">     -2.00000000</i>
   <i name="ENCUTGWSOFT">     -2.00000000</i>
   <i name="ENCUTLF">     -1.00000000</i>
   <i type="int" name="LMAXMP2">    -1</i>
   <i name="SCISSOR">      0.00000000</i>
   <i type="int" name="NOMEGA">     0</i>
   <i type="int" name="NOMEGAR">     0</i>
   <i type="int" name="NBANDSGW">    -1</i>
   <i type="int" name="NBANDSO">    -1</i>
   <i type="int" name="NBANDSV">    -1</i>
   <i type="int" name="NELM">   100</i>
   <i type="int" name="DIM">     3</i>
   <i type="int" name="ANTIRES">     0</i>
   <i name="OMEGAMAX">    -30.00000000</i>
   <i name="OMEGAMIN">    -30.00000000</i>
   <i name="OMEGATL">   -200.00000000</i>
   <i type="int" name="OMEGAGRID">     0</i>
   <i name="CSHIFT">     -0.10000000</i>
   <i type="logical" name="SELFENERGY"> F  </i>
   <i type="logical" name="LSPECTRAL"> F  </i>
   <i type="logical" name="ODDONLYGW"> F  </i>
   <i type="logical" name="EVENONLYGW"> F  </i>
   <i type="int" name="NKREDLFX">     1</i>
   <i type="int" name="NKREDLFY">     1</i>
   <i type="int" name="NKREDLFZ">     1</i>
   <i type="int" name="MAXMEM">  1800</i>
   <i type="int" name="TELESCOPE">     0</i>
   <i type="int" name="TAUPAR">     1</i>
  </separator>
  <separator name="External order field" >
   <i name="OFIELD_KAPPA">      0.00000000</i>
   <v name="OFIELD_K">      0.00000000      0.00000000      0.00000000</v>
   <i name="OFIELD_Q6_NEAR">      0.00000000</i>
   <i name="OFIELD_Q6_FAR">      0.00000000</i>
   <i name="OFIELD_A">      0.00000000</i>
  </separator>
 </parameters>
 <atominfo>
  <atoms>       4 </atoms>
  <types>       1 </types>
  <array name="atoms" >
   <dimension dim="1">ion</dimension>
   <field type="string">element</field>
   <field type="int">atomtype</field>
   <set>
    <rc><c>C </c><c>   1</c></rc>
    <rc><c>C </c><c>   1</c></rc>
    <rc><c>C </c><c>   1</c></rc>
    <rc><c>C </c><c>   1</c></rc>
   </set>
  </array>
  <array name="atomtypes" >
   <dimension dim="1">type</dimension>
   <field type="int">atomspertype</field>
   <field type="string">element</field>
   <field>mass</field>
   <field>valence</field>
   <field type="string">pseudopotential</field>
   <set>
    <rc><c>   4</c><c>C </c><c>     12.01100000</c><c>      4.00000000</c><c> PAW_PBE C 08Apr2002                    </c></rc>
   </set>
  </array>
 </atominfo>
 <structure name="initialpos" >
  <crystal>
   <varray name="basis" >
    <v>       4.26205500       0.00000000       0.00000000 </v>
    <v>       0.00000000       2.50431060       0.00000000 </v>
    <v>       0.00000000       0.00000000      19.75338111 </v>
   </varray>
   <i name="volume">    210.83790140 </i>
   <varray name="rec_basis" >
    <v>       0.23462860       0.00000000       0.00000000 </v>
    <v>       0.00000000       0.39931149       0.00000000 </v>
    <v>       0.00000000       0.00000000       0.05062424 </v>
   </varray>
  </crystal>
  <varray name="positions" >
   <v>       0.00039382       0.00000000       0.00000000 </v>
   <v>       0.16627284       0.50000000       0.00000000 </v>
   <v>       0.50039382       0.50000000       0.00000000 </v>
   <v>       0.66627284       0.00000000       0.00000000 </v>
  </varray>
 </structure>
 <calculation>
  <scstep>
   <time name="dav">  314.63  314.98</time>
   <time name="total">  317.43  317.81</time>
   <energy>
    <i name="alphaZ">      6.18334092 </i>
    <i name="ewald">   2503.75838626 </i>
    <i name="hartreedc">  -2931.62614621 </i>
    <i name="XCdc">     54.92898934 </i>
    <i name="pawpsdc">    151.32577238 </i>
    <i name="pawaedc">   -155.92769107 </i>
    <i name="eentropy">     -0.00123318 </i>
    <i name="bandstr">    -29.17877931 </i>
    <i name="atom">    588.62352690 </i>
    <i name="e_fr_energy">    188.08616605 </i>
    <i name="e_wo_entrp">    188.08739923 </i>
    <i name="e_0_energy">    188.08678264 </i>
   </energy>
  </scstep>
  <scstep>
   <time name="dav">  475.07  476.25</time>
   <time name="total">  475.07  476.26</time>
   <energy>
    <i name="e_fr_energy">     -9.56159978 </i>
    <i name="e_wo_entrp">     -9.56144639 </i>
    <i name="e_0_energy">     -9.56152309 </i>
   </energy>
  </scstep>
  <scstep>
   <time name="dav">  362.24  362.64</time>
   <time name="total">  395.32  395.76</time>
   <energy>
    <i name="e_fr_energy">    -38.24105448 </i>
    <i name="e_wo_entrp">    -38.24105438 </i>
    <i name="e_0_energy">    -38.24105443 </i>
   </energy>
  </scstep>
  <scstep>
   <time name="diag">   86.89   87.35</time>
   <time name="diis">  368.82  371.64</time>
   <time name="orth">    3.11    3.16</time>
   <time name="total">  494.49  498.07</time>
   <energy>
    <i name="e_fr_energy">    -37.63930979 </i>
    <i name="e_wo_entrp">    -37.63930574 </i>
    <i name="e_0_energy">    -37.63930777 </i>
   </energy>
  </scstep>
  <scstep>
   <time name="diag">   87.02   87.36</time>
   <time name="diis">  365.52  366.34</time>
   <time name="orth">    3.08    3.08</time>
   <time name="total">  491.42  493.01</time>
   <energy>
    <i name="e_fr_energy">    -36.91015371 </i>
    <i name="e_wo_entrp">    -36.91014919 </i>
    <i name="e_0_energy">    -36.91015145 </i>
   </energy>
  </scstep>
  <scstep>
   <time name="diag">   86.87   87.33</time>
   <time name="diis">  405.26  408.24</time>
   <time name="orth">    3.08    3.08</time>
   <time name="total">  531.12  534.95</time>
   <energy>
    <i name="e_fr_energy">    -36.91243799 </i>
    <i name="e_wo_entrp">    -36.91243297 </i>
    <i name="e_0_energy">    -36.91243548 </i>
   </energy>
  </scstep>
  <scstep>
   <time name="diag">   86.77   87.38</time>
   <time name="diis">  366.78  368.41</time>
   <time name="orth">    3.08    3.08</time>
   <time name="total">  492.41  495.14</time>
   <energy>
    <i name="e_fr_energy">    -36.90338300 </i>
    <i name="e_wo_entrp">    -36.90337864 </i>
    <i name="e_0_energy">    -36.90338082 </i>
   </energy>
  </scstep>
  <scstep>
   <time name="diag">   87.00   87.34</time>
   <time name="diis">  369.24  372.35</time>
   <time name="orth">    3.08    3.08</time>
   <time name="total">  495.05  499.02</time>
   <energy>
    <i name="e_fr_energy">    -36.89811255 </i>
    <i name="e_wo_entrp">    -36.89810801 </i>
    <i name="e_0_energy">    -36.89811028 </i>
   </energy>
  </scstep>
  <scstep>
   <time name="diag">   86.53   87.39</time>
   <time name="diis">  350.19  351.89</time>
   <time name="orth">    3.11    3.11</time>
   <time name="total">  475.79  478.52</time>
   <energy>
    <i name="e_fr_energy">    -36.89787839 </i>
    <i name="e_wo_entrp">    -36.89787349 </i>
    <i name="e_0_energy">    -36.89787594 </i>
   </energy>
  </scstep>
  <scstep>
   <time name="diag">   87.07   87.30</time>
   <time name="diis">  350.07  352.72</time>
   <time name="orth">    3.08    3.10</time>
   <time name="total">  475.68  479.02</time>
   <energy>
    <i name="e_fr_energy">    -36.89768532 </i>
    <i name="e_wo_entrp">    -36.89768062 </i>
    <i name="e_0_energy">    -36.89768297 </i>
   </energy>
  </scstep>
  <scstep>
   <time name="diag">   86.53   87.31</time>
   <time name="diis">  350.64  354.61</time>
   <time name="orth">    3.10    3.10</time>
   <time name="total">  476.02  481.10</time>
   <energy>
    <i name="e_fr_energy">    -36.90012467 </i>
    <i name="e_wo_entrp">    -36.90012007 </i>
    <i name="e_0_energy">    -36.90012237 </i>
   </energy>
  </scstep>
  <scstep>
   <time name="diag">   87.11   87.34</time>
   <time name="diis">  353.07  353.92</time>
   <time name="orth">    3.09    3.10</time>
   <time name="total">  479.14  480.40</time>
   <energy>
    <i name="e_fr_energy">    -36.90057534 </i>
    <i name="e_wo_entrp">    -36.90057067 </i>
    <i name="e_0_energy">    -36.90057300 </i>
   </energy>
  </scstep>
  <scstep>
   <time name="diag">   87.04   87.36</time>
   <time name="diis">  356.12  360.05</time>
   <time name="orth">    3.08    3.08</time>
   <time name="total">  481.62  486.37</time>
   <energy>
    <i name="e_fr_energy">    -36.90084974 </i>
    <i name="e_wo_entrp">    -36.90084504 </i>
    <i name="e_0_energy">    -36.90084739 </i>
   </energy>
  </scstep>
  <scstep>
   <time name="diag">   86.61   87.36</time>
   <time name="diis">  356.11  356.47</time>
   <time name="orth">    3.08    3.10</time>
   <time name="total">  481.90  483.23</time>
   <energy>
    <i name="e_fr_energy">    -36.90093121 </i>
    <i name="e_wo_entrp">    -36.90092654 </i>
    <i name="e_0_energy">    -36.90092887 </i>
   </energy>
  </scstep>
  <scstep>
   <time name="diag">   86.80   87.27</time>
   <time name="diis">  357.97  358.67</time>
   <time name="orth">    3.08    3.12</time>
   <time name="total">  483.99  485.47</time>
   <energy>
    <i name="e_fr_energy">    -36.90094213 </i>
    <i name="e_wo_entrp">    -36.90093745 </i>
    <i name="e_0_energy">    -36.90093979 </i>
   </energy>
  </scstep>
  <scstep>
   <time name="diag">   87.11   87.29</time>
   <time name="diis">  350.59  352.67</time>
   <time name="orth">    3.07    3.11</time>
   <time name="total">  476.48  479.15</time>
   <energy>
    <i name="e_fr_energy">    -36.90095448 </i>
    <i name="e_wo_entrp">    -36.90094979 </i>
    <i name="e_0_energy">    -36.90095213 </i>
   </energy>
  </scstep>
  <scstep>
   <time name="diag">   87.23   87.24</time>
   <time name="diis">  369.61  369.85</time>
   <time name="orth">    3.09    3.09</time>
   <time name="total">  495.86  496.16</time>
   <energy>
    <i name="e_fr_energy">    -36.90095974 </i>
    <i name="e_wo_entrp">    -36.90095507 </i>
    <i name="e_0_energy">    -36.90095740 </i>
   </energy>
  </scstep>
  <scstep>
   <time name="diag">   86.58   87.27</time>
   <time name="diis">  348.69  351.44</time>
   <time name="orth">    3.08    3.10</time>
   <time name="total">  473.87  477.48</time>
   <energy>
    <i name="e_fr_energy">    -36.90096091 </i>
    <i name="e_wo_entrp">    -36.90095623 </i>
    <i name="e_0_energy">    -36.90095857 </i>
   </energy>
  </scstep>
  <scstep>
   <time name="diag">   86.70   87.41</time>
   <time name="diis">  366.11  368.92</time>
   <time name="orth">    3.08    3.09</time>
   <time name="total">  491.67  496.54</time>
   <energy>
    <i name="e_fr_energy">    -36.90096169 </i>
    <i name="e_wo_entrp">    -36.90095701 </i>
    <i name="e_0_energy">    -36.90095935 </i>
   </energy>
  </scstep>
  <scstep>
   <time name="diag">   86.83   87.32</time>
   <time name="diis">  275.04  275.23</time>
   <time name="orth">    3.07    3.07</time>
   <time name="total">  400.82  401.71</time>
   <energy>
    <i name="e_fr_energy">    -36.90096175 </i>
    <i name="e_wo_entrp">    -36.90095707 </i>
    <i name="e_0_energy">    -36.90095941 </i>
   </energy>
  </scstep>
  <scstep>
   <time name="diag">   86.79   87.31</time>
   <time name="diis">  272.18  273.30</time>
   <time name="orth">    3.07    3.08</time>
   <time name="total">  397.73  399.76</time>
   <energy>
    <i name="e_fr_energy">    -36.90096177 </i>
    <i name="e_wo_entrp">    -36.90095709 </i>
    <i name="e_0_energy">    -36.90095943 </i>
   </energy>
  </scstep>
  <scstep>
   <time name="diag">   87.30   87.31</time>
   <time name="diis">  243.55  244.48</time>
   <time name="orth">    3.07    3.07</time>
   <time name="total">  369.98  371.12</time>
   <energy>
    <i name="e_fr_energy">    -36.90096177 </i>
    <i name="e_wo_entrp">    -36.90095709 </i>
    <i name="e_0_energy">    -36.90095943 </i>
   </energy>
  </scstep>
  <scstep>
   <time name="diag">   86.88   87.29</time>
   <time name="diis">  232.41  232.49</time>
   <time name="orth">    3.08    3.08</time>
   <time name="total">  358.20  359.19</time>
   <energy>
    <i name="e_fr_energy">    -36.90096177 </i>
    <i name="e_wo_entrp">    -36.90095709 </i>
    <i name="e_0_energy">    -36.90095943 </i>
   </energy>
  </scstep>
  <scstep>
   <time name="diag">   86.93   87.39</time>
   <time name="diis">  220.59  221.63</time>
   <time name="orth">    3.08    3.10</time>
   <time name="total">  346.31  348.02</time>
   <energy>
    <i name="e_fr_energy">    -36.90096177 </i>
    <i name="e_wo_entrp">    -36.90095709 </i>
    <i name="e_0_energy">    -36.90095943 </i>
   </energy>
  </scstep>
  <scstep>
   <time name="diag">   87.27   87.41</time>
   <time name="diis">  210.60  211.92</time>
   <time name="orth">    3.08    3.10</time>
   <time name="total">  336.60  338.56</time>
   <energy>
    <i name="e_fr_energy">    -36.90096177 </i>
    <i name="e_wo_entrp">    -36.90095709 </i>
    <i name="e_0_energy">    -36.90095943 </i>
   </energy>
  </scstep>
  <scstep>
   <time name="diag">   86.70   87.34</time>
   <time name="diis">  202.72  204.74</time>
   <time name="orth">    3.08    3.15</time>
   <time name="total">  328.15  331.42</time>
   <energy>
    <i name="e_fr_energy">    -36.90096177 </i>
    <i name="e_wo_entrp">    -36.90095709 </i>
    <i name="e_0_energy">    -36.90095943 </i>
   </energy>
  </scstep>
  <scstep>
   <time name="diag">   86.81   87.34</time>
   <time name="diis">  198.92  199.00</time>
   <time name="orth">    3.09    3.10</time>
   <time name="total">  325.09  325.75</time>
   <energy>
    <i name="e_fr_energy">    -36.90096177 </i>
    <i name="e_wo_entrp">    -36.90095709 </i>
    <i name="e_0_energy">    -36.90095943 </i>
   </energy>
  </scstep>
  <scstep>
   <time name="diag">   86.80   87.35</time>
   <time name="diis">  193.95  195.49</time>
   <time name="orth">    3.08    3.09</time>
   <time name="total">  319.48  323.18</time>
   <energy>
    <i name="e_fr_energy">    -36.90096177 </i>
    <i name="e_wo_entrp">    -36.90095709 </i>
    <i name="e_0_energy">    -36.90095943 </i>
   </energy>
  </scstep>
  <scstep>
   <time name="diag">   86.71   87.29</time>
   <time name="diis">  189.14  189.34</time>
   <time name="orth">    3.07    3.09</time>
   <time name="total">  314.87  315.81</time>
   <energy>
    <i name="e_fr_energy">    -36.90096177 </i>
    <i name="e_wo_entrp">    -36.90095709 </i>
    <i name="e_0_energy">    -36.90095943 </i>
   </energy>
  </scstep>
  <scstep>
   <time name="diag">   86.74   87.35</time>
   <time name="diis">  184.54  186.66</time>
   <time name="orth">    3.08    3.08</time>
   <time name="total">  277.13  279.86</time>
   <energy>
    <i name="alphaZ">      6.18334092 </i>
    <i name="ewald">   2503.75838626 </i>
    <i name="hartreedc">  -2997.91005067 </i>
    <i name="XCdc">     57.29362440 </i>
    <i name="pawpsdc">    272.08028475 </i>
    <i name="pawaedc">   -277.20645950 </i>
    <i name="eentropy">     -0.00000468 </i>
    <i name="bandstr">   -189.72361016 </i>
    <i name="atom">    588.62352690 </i>
    <i name="e_fr_energy">    -36.90096177 </i>
    <i name="e_wo_entrp">    -36.90095709 </i>
    <i name="e_0_energy">    -36.90095943 </i>
   </energy>
  </scstep>
  <structure>
   <crystal>
    <varray name="basis" >
     <v>       4.26205500       0.00000000       0.00000000 </v>
     <v>       0.00000000       2.50431060       0.00000000 </v>
     <v>       0.00000000       0.00000000      19.75338111 </v>
    </varray>
    <i name="volume">    210.83790140 </i>
    <varray name="rec_basis" >
     <v>       0.23462860       0.00000000       0.00000000 </v>
     <v>       0.00000000       0.39931149       0.00000000 </v>
     <v>       0.00000000       0.00000000       0.05062424 </v>
    </varray>
   </crystal>
   <varray name="positions" >
    <v>       0.00039382       0.00000000       0.00000000 </v>
    <v>       0.16627284       0.50000000       0.00000000 </v>
    <v>       0.50039382       0.50000000       0.00000000 </v>
    <v>       0.66627284       0.00000000       0.00000000 </v>
   </varray>
  </structure>
  <varray name="forces" >
   <v>      -0.00057228      -0.00000000       0.00000000 </v>
   <v>       0.00057228       0.00000000      -0.00000000 </v>
   <v>      -0.00057228       0.00000000       0.00000000 </v>
   <v>       0.00057228       0.00000000      -0.00000000 </v>
  </varray>
  <varray name="stress" >
   <v>      -0.00417013       0.00000000       0.00000000 </v>
   <v>       0.00000000     -24.90908003       0.00000000 </v>
   <v>       0.00000000       0.00000000      -0.01025495 </v>
  </varray>
  <energy>
   <i name="e_fr_energy">    -36.90096177 </i>
   <i name="e_wo_entrp">    -36.90095943 </i>
   <i name="e_0_energy">     -0.00000468 </i>
  </energy>
  <time name="totalsc">12862.5512932.43</time>
 </calculation>
 <calculation>
  <scstep>
   <time name="dav">  326.88  329.30</time>
   <time name="total">  362.67  365.53</time>
   <energy>
    <i name="alphaZ">      6.18334092 </i>
    <i name="ewald">   2503.75874254 </i>
    <i name="hartreedc">  -2997.91020486 </i>
    <i name="XCdc">     57.29363455 </i>
    <i name="pawpsdc">    272.08028472 </i>
    <i name="pawaedc">   -277.20645947 </i>
    <i name="eentropy">     -0.00000455 </i>
    <i name="bandstr">   -189.72382242 </i>
    <i name="atom">    588.62352690 </i>
    <i name="e_fr_energy">    -36.90096167 </i>
    <i name="e_wo_entrp">    -36.90095713 </i>
    <i name="e_0_energy">    -36.90095940 </i>
   </energy>
  </scstep>
  <scstep>
   <time name="diag">   86.63   87.26</time>
   <time name="diis">  350.10  351.90</time>
   <time name="orth">    3.08    3.08</time>
   <time name="total">  475.97  478.45</time>
   <energy>
    <i name="e_fr_energy">    -36.90096168 </i>
    <i name="e_wo_entrp">    -36.90095713 </i>
    <i name="e_0_energy">    -36.90095940 </i>
   </energy>
  </scstep>
  <scstep>
   <time name="diag">   87.21   87.23</time>
   <time name="diis">  354.74  355.97</time>
   <time name="orth">    3.10    3.10</time>
   <time name="total">  480.90  482.18</time>
   <energy>
    <i name="e_fr_energy">    -36.90096168 </i>
    <i name="e_wo_entrp">    -36.90095712 </i>
    <i name="e_0_energy">    -36.90095940 </i>
   </energy>
  </scstep>
  <scstep>
   <time name="diag">   87.21   87.22</time>
   <time name="diis">  356.45  356.59</time>
   <time name="orth">    3.10    3.10</time>
   <time name="total">  482.93  483.11</time>
   <energy>
    <i name="e_fr_energy">    -36.90096168 </i>
    <i name="e_wo_entrp">    -36.90095712 </i>
    <i name="e_0_energy">    -36.90095940 </i>
   </energy>
  </scstep>
  <scstep>
   <time name="diag">   87.20   87.21</time>
   <time name="diis">  242.34  242.39</time>
   <time name="orth">    3.08    3.08</time>
   <time name="total">  368.69  368.79</time>
   <energy>
    <i name="e_fr_energy">    -36.90096168 </i>
    <i name="e_wo_entrp">    -36.90095712 </i>
    <i name="e_0_energy">    -36.90095940 </i>
   </energy>
  </scstep>
  <scstep>
   <time name="diag">   87.21   87.28</time>
   <time name="diis">  230.49  230.65</time>
   <time name="orth">    3.10    3.10</time>
   <time name="total">  357.11  357.46</time>
   <energy>
    <i name="e_fr_energy">    -36.90096168 </i>
    <i name="e_wo_entrp">    -36.90095712 </i>
    <i name="e_0_energy">    -36.90095940 </i>
   </energy>
  </scstep>
  <scstep>
   <time name="diag">   87.18   87.20</time>
   <time name="diis">  227.58  227.69</time>
   <time name="orth">    3.10    3.10</time>
   <time name="total">  320.53  320.80</time>
   <energy>
    <i name="alphaZ">      6.18334092 </i>
    <i name="ewald">   2503.75874254 </i>
    <i name="hartreedc">  -2997.91034517 </i>
    <i name="XCdc">     57.29364055 </i>
    <i name="pawpsdc">    272.08090804 </i>
    <i name="pawaedc">   -277.20708553 </i>
    <i name="eentropy">     -0.00000456 </i>
    <i name="bandstr">   -189.72368537 </i>
    <i name="atom">    588.62352690 </i>
    <i name="e_fr_energy">    -36.90096168 </i>
    <i name="e_wo_entrp">    -36.90095712 </i>
    <i name="e_0_energy">    -36.90095940 </i>
   </energy>
  </scstep>
  <structure>
   <crystal>
    <varray name="basis" >
     <v>       4.26205500       0.00000000       0.00000000 </v>
     <v>       0.00000000       2.50431060       0.00000000 </v>
     <v>       0.00000000       0.00000000      19.75338111 </v>
    </varray>
    <i name="volume">    210.83790140 </i>
    <varray name="rec_basis" >
     <v>       0.23462860       0.00000000       0.00000000 </v>
     <v>       0.00000000       0.39931149       0.00000000 </v>
     <v>       0.00000000       0.00000000       0.05062424 </v>
    </varray>
   </crystal>
   <varray name="positions" >
    <v>       0.00038735      -0.00000000       0.00000000 </v>
    <v>       0.16627932       0.50000000      -0.00000000 </v>
    <v>       0.50038735       0.50000000       0.00000000 </v>
    <v>       0.66627932       0.00000000      -0.00000000 </v>
   </varray>
  </structure>
  <varray name="forces" >
   <v>       0.00233063      -0.00000000       0.00000000 </v>
   <v>      -0.00233063       0.00000000       0.00000000 </v>
   <v>       0.00233063       0.00000000       0.00000000 </v>
   <v>      -0.00233063      -0.00000000       0.00000000 </v>
  </varray>
  <varray name="stress" >
   <v>       0.00659755       0.00000000       0.00000000 </v>
   <v>       0.00000000     -24.91704715       0.00000000 </v>
   <v>       0.00000000       0.00000000      -0.01024220 </v>
  </varray>
  <energy>
   <i name="e_fr_energy">    -36.90096168 </i>
   <i name="e_wo_entrp">    -36.90095940 </i>
   <i name="e_0_energy">     -0.00000456 </i>
  </energy>
  <time name="totalsc"> 2954.30 2962.20</time>
 </calculation>
 <calculation>
  <scstep>
   <time name="dav">  338.53  338.92</time>
   <time name="total">  374.58  375.08</time>
   <energy>
    <i name="alphaZ">      6.18334092 </i>
    <i name="ewald">   2503.75845641 </i>
    <i name="hartreedc">  -2997.91022556 </i>
    <i name="XCdc">     57.29363248 </i>
    <i name="pawpsdc">    272.08090514 </i>
    <i name="pawaedc">   -277.20708265 </i>
    <i name="eentropy">     -0.00000466 </i>
    <i name="bandstr">   -189.72351076 </i>
    <i name="atom">    588.62352690 </i>
    <i name="e_fr_energy">    -36.90096178 </i>
    <i name="e_wo_entrp">    -36.90095712 </i>
    <i name="e_0_energy">    -36.90095945 </i>
   </energy>
  </scstep>
  <scstep>
   <time name="diag">   86.90   87.28</time>
   <time name="diis">  353.29  353.37</time>
   <time name="orth">    3.09    3.10</time>
   <time name="total">  479.32  479.82</time>
   <energy>
    <i name="e_fr_energy">    -36.90096178 </i>
    <i name="e_wo_entrp">    -36.90095712 </i>
    <i name="e_0_energy">    -36.90095945 </i>
   </energy>
  </scstep>
  <scstep>
   <time name="diag">   87.19   87.21</time>
   <time name="diis">  356.27  356.43</time>
   <time name="orth">    3.10    3.10</time>
   <time name="total">  482.54  482.78</time>
   <energy>
    <i name="e_fr_energy">    -36.90096178 </i>
    <i name="e_wo_entrp">    -36.90095712 </i>
    <i name="e_0_energy">    -36.90095945 </i>
   </energy>
  </scstep>
  <scstep>
   <time name="diag">   87.17   87.19</time>
   <time name="diis">  341.57  341.75</time>
   <time name="orth">    3.07    3.08</time>
   <time name="total">  467.88  468.12</time>
   <energy>
    <i name="e_fr_energy">    -36.90096178 </i>
    <i name="e_wo_entrp">    -36.90095712 </i>
    <i name="e_0_energy">    -36.90095945 </i>
   </energy>
  </scstep>
  <scstep>
   <time name="diag">   87.16   87.20</time>
   <time name="diis">  238.60  238.72</time>
   <time name="orth">    3.07    3.08</time>
   <time name="total">  364.98  365.17</time>
   <energy>
    <i name="e_fr_energy">    -36.90096178 </i>
    <i name="e_wo_entrp">    -36.90095712 </i>
    <i name="e_0_energy">    -36.90095945 </i>
   </energy>
  </scstep>
  <scstep>
   <time name="diag">   87.20   87.29</time>
   <time name="diis">  227.30  227.44</time>
   <time name="orth">    3.08    3.08</time>
   <time name="total">  353.50  353.95</time>
   <energy>
    <i name="e_fr_energy">    -36.90096178 </i>
    <i name="e_wo_entrp">    -36.90095712 </i>
    <i name="e_0_energy">    -36.90095945 </i>
   </energy>
  </scstep>
  <scstep>
   <time name="diag">   86.80   87.22</time>
   <time name="diis">  218.50  218.82</time>
   <time name="orth">    3.08    3.08</time>
   <time name="total">  344.38  345.21</time>
   <energy>
    <i name="e_fr_energy">    -36.90096178 </i>
    <i name="e_wo_entrp">    -36.90095712 </i>
    <i name="e_0_energy">    -36.90095945 </i>
   </energy>
  </scstep>
  <scstep>
   <time name="diag">   87.24   87.30</time>
   <time name="diis">  209.28  209.44</time>
   <time name="orth">    3.08    3.08</time>
   <time name="total">  336.05  336.37</time>
   <energy>
    <i name="e_fr_energy">    -36.90096178 </i>
    <i name="e_wo_entrp">    -36.90095712 </i>
    <i name="e_0_energy">    -36.90095945 </i>
   </energy>
  </scstep>
  <scstep>
   <time name="diag">   87.24   87.27</time>
   <time name="diis">  203.04  203.13</time>
   <time name="orth">    3.08    3.08</time>
   <time name="total">  296.09  296.25</time>
   <energy>
    <i name="alphaZ">      6.18334092 </i>
    <i name="ewald">   2503.75845641 </i>
    <i name="hartreedc">  -2997.91011441 </i>
    <i name="XCdc">     57.29362763 </i>
    <i name="pawpsdc">    272.08040520 </i>
    <i name="pawaedc">   -277.20658053 </i>
    <i name="eentropy">     -0.00000466 </i>
    <i name="bandstr">   -189.72361924 </i>
    <i name="atom">    588.62352690 </i>
    <i name="e_fr_energy">    -36.90096178 </i>
    <i name="e_wo_entrp">    -36.90095712 </i>
    <i name="e_0_energy">    -36.90095945 </i>
   </energy>
  </scstep>
  <structure>
   <crystal>
    <varray name="basis" >
     <v>       4.26205500       0.00000000       0.00000000 </v>
     <v>       0.00000000       2.50431060       0.00000000 </v>
     <v>       0.00000000       0.00000000      19.75338111 </v>
    </varray>
    <i name="volume">    210.83790140 </i>
    <varray name="rec_basis" >
     <v>       0.23462860       0.00000000       0.00000000 </v>
     <v>       0.00000000       0.39931149       0.00000000 </v>
     <v>       0.00000000       0.00000000       0.05062424 </v>
    </varray>
   </crystal>
   <varray name="positions" >
    <v>       0.00039255      -0.00000000       0.00000000 </v>
    <v>       0.16627412       0.50000000      -0.00000000 </v>
    <v>       0.50039255       0.50000000       0.00000000 </v>
    <v>       0.66627412      -0.00000000      -0.00000000 </v>
   </varray>
  </structure>
  <varray name="forces" >
   <v>       0.00000205       0.00000000       0.00000000 </v>
   <v>      -0.00000205      -0.00000000      -0.00000000 </v>
   <v>       0.00000205      -0.00000000       0.00000000 </v>
   <v>      -0.00000205       0.00000000      -0.00000000 </v>
  </varray>
  <varray name="stress" >
   <v>      -0.00200497       0.00000000       0.00000000 </v>
   <v>       0.00000000     -24.91068078       0.00000000 </v>
   <v>       0.00000000       0.00000000      -0.01025460 </v>
  </varray>
  <energy>
   <i name="e_fr_energy">    -36.90096178 </i>
   <i name="e_wo_entrp">    -36.90095945 </i>
   <i name="e_0_energy">     -0.00000466 </i>
  </energy>
  <time name="totalsc"> 3604.10 3607.84</time>
 </calculation>
 <calculation>
  <scstep>
   <time name="dav">  267.87  268.10</time>
   <time name="total">  304.18  304.62</time>
   <energy>
    <i name="alphaZ">      6.18334092 </i>
    <i name="ewald">   2503.75845616 </i>
    <i name="hartreedc">  -2997.91011350 </i>
    <i name="XCdc">     57.29362761 </i>
    <i name="pawpsdc">    272.08040528 </i>
    <i name="pawaedc">   -277.20658062 </i>
    <i name="eentropy">     -0.00000466 </i>
    <i name="bandstr">   -189.72361989 </i>
    <i name="atom">    588.62352690 </i>
    <i name="e_fr_energy">    -36.90096178 </i>
    <i name="e_wo_entrp">    -36.90095712 </i>
    <i name="e_0_energy">    -36.90095945 </i>
   </energy>
  </scstep>
  <scstep>
   <time name="diag">   86.78   87.26</time>
   <time name="diis">  169.67  170.03</time>
   <time name="orth">    3.08    3.08</time>
   <time name="total">  296.00  296.84</time>
   <energy>
    <i name="e_fr_energy">    -36.90096178 </i>
    <i name="e_wo_entrp">    -36.90095712 </i>
    <i name="e_0_energy">    -36.90095945 </i>
   </energy>
  </scstep>
  <scstep>
   <time name="diag">   87.22   87.24</time>
   <time name="diis">  167.64  167.67</time>
   <time name="orth">    3.09    3.10</time>
   <time name="total">  294.39  294.48</time>
   <energy>
    <i name="e_fr_energy">    -36.90096178 </i>
    <i name="e_wo_entrp">    -36.90095712 </i>
    <i name="e_0_energy">    -36.90095945 </i>
   </energy>
  </scstep>
  <scstep>
   <time name="diag">   87.27   87.29</time>
   <time name="diis">  166.30  166.57</time>
   <time name="orth">    3.09    3.10</time>
   <time name="total">  293.13  293.44</time>
   <energy>
    <i name="e_fr_energy">    -36.90096178 </i>
    <i name="e_wo_entrp">    -36.90095712 </i>
    <i name="e_0_energy">    -36.90095945 </i>
   </energy>
  </scstep>
  <scstep>
   <time name="diag">   87.23   87.26</time>
   <time name="diis">  165.21  165.24</time>
   <time name="orth">    3.08    3.08</time>
   <time name="total">  291.89  292.09</time>
   <energy>
    <i name="e_fr_energy">    -36.90096178 </i>
    <i name="e_wo_entrp">    -36.90095712 </i>
    <i name="e_0_energy">    -36.90095945 </i>
   </energy>
  </scstep>
  <scstep>
   <time name="diag">   87.20   87.22</time>
   <time name="diis">  163.52  163.66</time>
   <time name="orth">    3.08    3.08</time>
   <time name="total">  256.57  256.72</time>
   <energy>
    <i name="alphaZ">      6.18334092 </i>
    <i name="ewald">   2503.75845616 </i>
    <i name="hartreedc">  -2997.91011072 </i>
    <i name="XCdc">     57.29362760 </i>
    <i name="pawpsdc">    272.08040588 </i>
    <i name="pawaedc">   -277.20658122 </i>
    <i name="eentropy">     -0.00000466 </i>
    <i name="bandstr">   -189.72362264 </i>
    <i name="atom">    588.62352690 </i>
    <i name="e_fr_energy">    -36.90096178 </i>
    <i name="e_wo_entrp">    -36.90095712 </i>
    <i name="e_0_energy">    -36.90095945 </i>
   </energy>
  </scstep>
  <structure>
   <crystal>
    <varray name="basis" >
     <v>       4.26205500       0.00000000       0.00000000 </v>
     <v>       0.00000000       2.50431060       0.00000000 </v>
     <v>       0.00000000       0.00000000      19.75338111 </v>
    </varray>
    <i name="volume">    210.83790140 </i>
    <varray name="rec_basis" >
     <v>       0.23462860       0.00000000       0.00000000 </v>
     <v>       0.00000000       0.39931149       0.00000000 </v>
     <v>       0.00000000       0.00000000       0.05062424 </v>
    </varray>
   </crystal>
   <varray name="positions" >
    <v>       0.00039255       0.00000000       0.00000000 </v>
    <v>       0.16627412       0.50000000      -0.00000000 </v>
    <v>       0.50039255       0.50000000       0.00000000 </v>
    <v>       0.66627412       0.00000000      -0.00000000 </v>
   </varray>
  </structure>
  <varray name="forces" >
   <v>      -0.00000235      -0.00000000      -0.00000000 </v>
   <v>       0.00000235       0.00000000       0.00000000 </v>
   <v>      -0.00000235       0.00000000      -0.00000000 </v>
   <v>       0.00000235       0.00000000       0.00000000 </v>
  </varray>
  <varray name="stress" >
   <v>      -0.00204237       0.00000000       0.00000000 </v>
   <v>       0.00000000     -24.91064432       0.00000000 </v>
   <v>       0.00000000       0.00000000      -0.01025302 </v>
  </varray>
  <energy>
   <i name="e_fr_energy">    -36.90096178 </i>
   <i name="e_wo_entrp">    -36.90095945 </i>
   <i name="e_0_energy">     -0.00000466 </i>
  </energy>
  <time name="totalsc"> 1841.76 1845.63</time>
 </calculation>
 <calculation>
  <scstep>
   <time name="dav">  263.85  264.00</time>
   <time name="total">  300.32  300.47</time>
   <energy>
    <i name="alphaZ">      6.18334092 </i>
    <i name="ewald">   2503.75845630 </i>
    <i name="hartreedc">  -2997.91011062 </i>
    <i name="XCdc">     57.29362760 </i>
    <i name="pawpsdc">    272.08040587 </i>
    <i name="pawaedc">   -277.20658122 </i>
    <i name="eentropy">     -0.00000466 </i>
    <i name="bandstr">   -189.72362288 </i>
    <i name="atom">    588.62352690 </i>
    <i name="e_fr_energy">    -36.90096178 </i>
    <i name="e_wo_entrp">    -36.90095712 </i>
    <i name="e_0_energy">    -36.90095945 </i>
   </energy>
  </scstep>
  <scstep>
   <time name="diag">   87.25   87.28</time>
   <time name="diis">  152.45  152.51</time>
   <time name="orth">    3.10    3.10</time>
   <time name="total">  279.33  279.42</time>
   <energy>
    <i name="e_fr_energy">    -36.90096178 </i>
    <i name="e_wo_entrp">    -36.90095712 </i>
    <i name="e_0_energy">    -36.90095945 </i>
   </energy>
  </scstep>
  <scstep>
   <time name="diag">   87.19   87.26</time>
   <time name="diis">  156.25  157.01</time>
   <time name="orth">    3.07    3.08</time>
   <time name="total">  282.79  283.85</time>
   <energy>
    <i name="e_fr_energy">    -36.90096178 </i>
    <i name="e_wo_entrp">    -36.90095712 </i>
    <i name="e_0_energy">    -36.90095945 </i>
   </energy>
  </scstep>
  <scstep>
   <time name="diag">   86.77   87.20</time>
   <time name="diis">  150.86  150.91</time>
   <time name="orth">    3.10    3.10</time>
   <time name="total">  277.21  277.73</time>
   <energy>
    <i name="e_fr_energy">    -36.90096178 </i>
    <i name="e_wo_entrp">    -36.90095712 </i>
    <i name="e_0_energy">    -36.90095945 </i>
   </energy>
  </scstep>
  <scstep>
   <time name="diag">   87.22   87.26</time>
   <time name="diis">  151.26  151.36</time>
   <time name="orth">    3.10    3.10</time>
   <time name="total">  244.33  244.48</time>
   <energy>
    <i name="alphaZ">      6.18334092 </i>
    <i name="ewald">   2503.75845630 </i>
    <i name="hartreedc">  -2997.91011074 </i>
    <i name="XCdc">     57.29362760 </i>
    <i name="pawpsdc">    272.08040622 </i>
    <i name="pawaedc">   -277.20658156 </i>
    <i name="eentropy">     -0.00000466 </i>
    <i name="bandstr">   -189.72362277 </i>
    <i name="atom">    588.62352690 </i>
    <i name="e_fr_energy">    -36.90096178 </i>
    <i name="e_wo_entrp">    -36.90095712 </i>
    <i name="e_0_energy">    -36.90095945 </i>
   </energy>
  </scstep>
  <structure>
   <crystal>
    <varray name="basis" >
     <v>       4.26205500       0.00000000       0.00000000 </v>
     <v>       0.00000000       2.50431060       0.00000000 </v>
     <v>       0.00000000       0.00000000      19.75338111 </v>
    </varray>
    <i name="volume">    210.83790140 </i>
    <varray name="rec_basis" >
     <v>       0.23462860       0.00000000       0.00000000 </v>
     <v>       0.00000000       0.39931149       0.00000000 </v>
     <v>       0.00000000       0.00000000       0.05062424 </v>
    </varray>
   </crystal>
   <varray name="positions" >
    <v>       0.00039255       0.00000000       0.00000000 </v>
    <v>       0.16627412       0.50000000      -0.00000000 </v>
    <v>       0.50039255       0.50000000       0.00000000 </v>
    <v>       0.66627412       0.00000000      -0.00000000 </v>
   </varray>
  </structure>
  <varray name="forces" >
   <v>       0.00000031       0.00000000       0.00000000 </v>
   <v>      -0.00000031      -0.00000000      -0.00000000 </v>
   <v>       0.00000031      -0.00000000       0.00000000 </v>
   <v>      -0.00000031       0.00000000      -0.00000000 </v>
  </varray>
  <varray name="stress" >
   <v>      -0.00202884       0.00000000       0.00000000 </v>
   <v>       0.00000000     -24.91065791       0.00000000 </v>
   <v>       0.00000000       0.00000000      -0.01025139 </v>
  </varray>
  <energy>
   <i name="e_fr_energy">    -36.90096178 </i>
   <i name="e_wo_entrp">    -36.90095945 </i>
   <i name="e_0_energy">     -0.00000466 </i>
  </energy>
  <time name="totalsc"> 1482.00 1484.18</time>
  <eigenvalues>
   <array>
    <dimension dim="1">band</dimension>
    <dimension dim="2">kpoint</dimension>
    <dimension dim="3">spin</dimension>
    <field>eigene</field>
    <field>occ</field>
    <set>
     <set comment="spin 1">
      <set comment="kpoint 1">
       <r>  -22.1501    1.0000 </r>
       <r>  -16.8296    1.0000 </r>
       <r>  -15.9064    1.0000 </r>
       <r>  -10.2790    1.0000 </r>
       <r>   -9.3554    1.0000 </r>
       <r>   -5.9165    1.0000 </r>
       <r>   -5.7545    1.0000 </r>
       <r>   -4.9862    1.0000 </r>
       <r>   -1.1125    0.0000 </r>
       <r>    0.5363    0.0000 </r>
       <r>    1.3356    0.0000 </r>
       <r>    1.7248    0.0000 </r>
      </set>
      <set comment="kpoint 2">
       <r>  -22.1397    1.0000 </r>
       <r>  -17.0125    1.0000 </r>
       <r>  -15.7085    1.0000 </r>
       <r>  -10.2667    1.0000 </r>
       <r>   -9.3451    1.0000 </r>
       <r>   -5.9397    1.0000 </r>
       <r>   -5.7957    1.0000 </r>
       <r>   -5.0548    1.0000 </r>
       <r>   -1.0285    0.0000 </r>
       <r>    0.5503    0.0000 </r>
       <r>    1.3498    0.0000 </r>
       <r>    1.7391    0.0000 </r>
      </set>
      <set comment="kpoint 3">
       <r>  -22.1088    1.0000 </r>
       <r>  -17.3673    1.0000 </r>
       <r>  -15.3084    1.0000 </r>
       <r>  -10.2298    1.0000 </r>
       <r>   -9.3142    1.0000 </r>
       <r>   -6.0082    1.0000 </r>
       <r>   -5.9178    1.0000 </r>
       <r>   -5.2445    1.0000 </r>
       <r>   -0.7931    0.0000 </r>
       <r>    0.5923    0.0000 </r>
       <r>    1.3922    0.0000 </r>
       <r>    1.7821    0.0000 </r>
      </set>
      <set comment="kpoint 4">
       <r>  -22.0572    1.0000 </r>
       <r>  -17.7539    1.0000 </r>
       <r>  -14.8466    1.0000 </r>
       <r>  -10.1685    1.0000 </r>
       <r>   -9.2628    1.0000 </r>
       <r>   -6.1182    1.0000 </r>
       <r>   -6.1163    1.0000 </r>
       <r>   -5.5198    1.0000 </r>
       <r>   -0.4423    0.0000 </r>
       <r>    0.6623    0.0000 </r>
       <r>    1.4630    0.0000 </r>
       <r>    1.8537    0.0000 </r>
      </set>
      <set comment="kpoint 5">
       <r>  -21.9850    1.0000 </r>
       <r>  -18.1396    1.0000 </r>
       <r>  -14.3564    1.0000 </r>
       <r>  -10.0828    1.0000 </r>
       <r>   -9.1913    1.0000 </r>
       <r>   -6.3844    1.0000 </r>
       <r>   -6.2641    1.0000 </r>
       <r>   -5.8461    1.0000 </r>
       <r>   -0.0114    0.0000 </r>
       <r>    0.7602    0.0000 </r>
       <r>    1.5620    0.0000 </r>
       <r>    1.9541    0.0000 </r>
      </set>
      <set comment="kpoint 6">
       <r>  -21.8922    1.0000 </r>
       <r>  -18.5148    1.0000 </r>
       <r>  -13.8478    1.0000 </r>
       <r>   -9.9728    1.0000 </r>
       <r>   -9.0999    1.0000 </r>
       <r>   -6.7140    1.0000 </r>
       <r>   -6.4394    1.0000 </r>
       <r>   -6.1987    1.0000 </r>
       <r>    0.4734    0.0000 </r>
       <r>    0.8862    0.0000 </r>
       <r>    1.6893    0.0000 </r>
       <r>    2.0830    0.0000 </r>
      </set>
      <set comment="kpoint 7">
       <r>  -21.7790    1.0000 </r>
       <r>  -18.8759    1.0000 </r>
       <r>  -13.3256    1.0000 </r>
       <r>   -9.8387    1.0000 </r>
       <r>   -8.9892    1.0000 </r>
       <r>   -7.0964    1.0000 </r>
       <r>   -6.6372    1.0000 </r>
       <r>   -6.5611    1.0000 </r>
       <r>    0.9942    0.0000 </r>
       <r>    1.0401    0.0000 </r>
       <r>    1.8448    0.0000 </r>
       <r>    2.2407    0.0000 </r>
      </set>
      <set comment="kpoint 8">
       <r>  -21.6454    1.0000 </r>
       <r>  -19.2208    1.0000 </r>
       <r>  -12.7928    1.0000 </r>
       <r>   -9.6808    1.0000 </r>
       <r>   -8.8598    1.0000 </r>
       <r>   -7.5230    1.0000 </r>
       <r>   -6.9229    1.0000 </r>
       <r>   -6.8508    1.0000 </r>
       <r>    1.2219    0.0000 </r>
       <r>    1.5384    0.0000 </r>
       <r>    2.0284    0.0000 </r>
       <r>    2.4270    0.0000 </r>
      </set>
      <set comment="kpoint 9">
       <r>  -21.4915    1.0000 </r>
       <r>  -19.5486    1.0000 </r>
       <r>  -12.2518    1.0000 </r>
       <r>   -9.4994    1.0000 </r>
       <r>   -8.7126    1.0000 </r>
       <r>   -7.9854    1.0000 </r>
       <r>   -7.2773    1.0000 </r>
       <r>   -7.0742    1.0000 </r>
       <r>    1.4316    0.0000 </r>
       <r>    2.0965    0.0000 </r>
       <r>    2.2400    0.0000 </r>
       <r>    2.6419    0.0000 </r>
      </set>
      <set comment="kpoint 10">
       <r>  -21.3174    1.0000 </r>
       <r>  -19.8584    1.0000 </r>
       <r>  -11.7052    1.0000 </r>
       <r>   -9.2948    1.0000 </r>
       <r>   -8.5486    1.0000 </r>
       <r>   -8.4764    1.0000 </r>
       <r>   -7.6197    1.0000 </r>
       <r>   -7.3019    1.0000 </r>
       <r>    1.6692    0.0000 </r>
       <r>    2.4794    0.0000 </r>
       <r>    2.6601    0.0000 </r>
       <r>    2.8855    0.0000 </r>
      </set>
      <set comment="kpoint 11">
       <r>  -21.1232    1.0000 </r>
       <r>  -20.1497    1.0000 </r>
       <r>  -11.1554    1.0000 </r>
       <r>   -9.0676    1.0000 </r>
       <r>   -8.9893    1.0000 </r>
       <r>   -8.3689    1.0000 </r>
       <r>   -7.9471    1.0000 </r>
       <r>   -7.5295    1.0000 </r>
       <r>    1.9345    0.0000 </r>
       <r>    2.7464    0.0000 </r>
       <r>    3.1577    0.0000 </r>
       <r>    3.2174    0.0000 </r>
      </set>
      <set comment="kpoint 12">
       <r>  -20.9092    1.0000 </r>
       <r>  -20.4222    1.0000 </r>
       <r>  -10.6054    1.0000 </r>
       <r>   -9.5183    1.0000 </r>
       <r>   -8.8184    1.0000 </r>
       <r>   -8.2570    1.0000 </r>
       <r>   -8.1751    1.0000 </r>
       <r>   -7.7529    1.0000 </r>
       <r>    2.2274    0.0000 </r>
       <r>    2.8953    0.0000 </r>
       <r>    3.0398    0.0000 </r>
       <r>    3.4584    0.0000 </r>
      </set>
      <set comment="kpoint 13">
       <r>  -20.6754    1.0000 </r>
       <r>  -20.6754    1.0000 </r>
       <r>  -10.0585    1.0000 </r>
       <r>  -10.0585    1.0000 </r>
       <r>   -8.5478    1.0000 </r>
       <r>   -8.5478    1.0000 </r>
       <r>   -7.9691    1.0000 </r>
       <r>   -7.9691    1.0000 </r>
       <r>    2.5478    0.0000 </r>
       <r>    2.5478    0.0000 </r>
       <r>    3.3557    0.0000 </r>
       <r>    3.3557    0.0000 </r>
      </set>
      <set comment="kpoint 14">
       <r>  -22.1368    1.0000 </r>
       <r>  -16.8182    1.0000 </r>
       <r>  -15.8956    1.0000 </r>
       <r>  -10.2632    1.0000 </r>
       <r>   -9.4149    1.0000 </r>
       <r>   -5.9712    1.0000 </r>
       <r>   -5.7860    1.0000 </r>
       <r>   -4.9701    1.0000 </r>
       <r>   -1.1178    0.0000 </r>
       <r>    0.5542    0.0000 </r>
       <r>    1.3538    0.0000 </r>
       <r>    1.7432    0.0000 </r>
      </set>
      <set comment="kpoint 15">
       <r>  -22.1265    1.0000 </r>
       <r>  -17.0009    1.0000 </r>
       <r>  -15.6978    1.0000 </r>
       <r>  -10.2509    1.0000 </r>
       <r>   -9.4046    1.0000 </r>
       <r>   -5.9984    1.0000 </r>
       <r>   -5.8226    1.0000 </r>
       <r>   -5.0389    1.0000 </r>
       <r>   -1.0338    0.0000 </r>
       <r>    0.5682    0.0000 </r>
       <r>    1.3680    0.0000 </r>
       <r>    1.7575    0.0000 </r>
      </set>
      <set comment="kpoint 16">
       <r>  -22.0955    1.0000 </r>
       <r>  -17.3555    1.0000 </r>
       <r>  -15.2981    1.0000 </r>
       <r>  -10.2141    1.0000 </r>
       <r>   -9.3736    1.0000 </r>
       <r>   -6.0817    1.0000 </r>
       <r>   -5.9279    1.0000 </r>
       <r>   -5.2290    1.0000 </r>
       <r>   -0.7984    0.0000 </r>
       <r>    0.6102    0.0000 </r>
       <r>    1.4105    0.0000 </r>
       <r>    1.8005    0.0000 </r>
      </set>
      <set comment="kpoint 17">
       <r>  -22.0439    1.0000 </r>
       <r>  -17.7419    1.0000 </r>
       <r>  -14.8369    1.0000 </r>
       <r>  -10.1527    1.0000 </r>
       <r>   -9.3221    1.0000 </r>
       <r>   -6.2306    1.0000 </r>
       <r>   -6.0845    1.0000 </r>
       <r>   -5.5046    1.0000 </r>
       <r>   -0.4479    0.0000 </r>
       <r>    0.6802    0.0000 </r>
       <r>    1.4812    0.0000 </r>
       <r>    1.8722    0.0000 </r>
      </set>
      <set comment="kpoint 18">
       <r>  -21.9717    1.0000 </r>
       <r>  -18.1274    1.0000 </r>
       <r>  -14.3472    1.0000 </r>
       <r>  -10.0670    1.0000 </r>
       <r>   -9.2503    1.0000 </r>
       <r>   -6.4616    1.0000 </r>
       <r>   -6.2639    1.0000 </r>
       <r>   -5.8312    1.0000 </r>
       <r>   -0.0176    0.0000 </r>
       <r>    0.7782    0.0000 </r>
       <r>    1.5802    0.0000 </r>
       <r>    1.9725    0.0000 </r>
      </set>
      <set comment="kpoint 19">
       <r>  -21.8790    1.0000 </r>
       <r>  -18.5025    1.0000 </r>
       <r>  -13.8394    1.0000 </r>
       <r>   -9.9571    1.0000 </r>
       <r>   -9.1587    1.0000 </r>
       <r>   -6.7698    1.0000 </r>
       <r>   -6.4570    1.0000 </r>
       <r>   -6.1839    1.0000 </r>
       <r>    0.4663    0.0000 </r>
       <r>    0.9042    0.0000 </r>
       <r>    1.7075    0.0000 </r>
       <r>    2.1015    0.0000 </r>
      </set>
      <set comment="kpoint 20">
       <r>  -21.7658    1.0000 </r>
       <r>  -18.8634    1.0000 </r>
       <r>  -13.3181    1.0000 </r>
       <r>   -9.8231    1.0000 </r>
       <r>   -9.0476    1.0000 </r>
       <r>   -7.1383    1.0000 </r>
       <r>   -6.6652    1.0000 </r>
       <r>   -6.5463    1.0000 </r>
       <r>    0.9857    0.0000 </r>
       <r>    1.0581    0.0000 </r>
[...]
       <r>   -9.0862    1.0000 </r>
       <r>   -5.6374    1.0000 </r>
       <r>   -5.6374    1.0000 </r>
       <r>   -0.5140    0.0000 </r>
       <r>   -0.5140    0.0000 </r>
       <r>    4.8233    0.0000 </r>
       <r>    4.8233    0.0000 </r>
      </set>
      <set comment="kpoint 209">
       <r>  -18.8401    1.0000 </r>
       <r>  -17.1121    1.0000 </r>
       <r>  -13.9358    1.0000 </r>
       <r>  -12.3554    1.0000 </r>
       <r>  -12.3520    1.0000 </r>
       <r>  -10.8646    1.0000 </r>
       <r>   -6.4681    1.0000 </r>
       <r>   -4.6322    1.0000 </r>
       <r>   -0.9924    0.0000 </r>
       <r>    1.1065    0.0000 </r>
       <r>    5.1173    0.0000 </r>
       <r>    5.9062    0.0000 </r>
      </set>
      <set comment="kpoint 210">
       <r>  -18.8303    1.0000 </r>
       <r>  -17.1045    1.0000 </r>
       <r>  -14.0259    1.0000 </r>
       <r>  -12.4362    1.0000 </r>
       <r>  -12.2571    1.0000 </r>
       <r>  -10.7822    1.0000 </r>
       <r>   -6.4593    1.0000 </r>
       <r>   -4.6346    1.0000 </r>
       <r>   -1.0030    0.0000 </r>
       <r>    1.0807    0.0000 </r>
       <r>    5.1310    0.0000 </r>
       <r>    5.9224    0.0000 </r>
      </set>
      <set comment="kpoint 211">
       <r>  -18.8011    1.0000 </r>
       <r>  -17.0822    1.0000 </r>
       <r>  -14.2472    1.0000 </r>
       <r>  -12.6470    1.0000 </r>
       <r>  -12.0113    1.0000 </r>
       <r>  -10.5775    1.0000 </r>
       <r>   -6.4329    1.0000 </r>
       <r>   -4.6423    1.0000 </r>
       <r>   -1.0329    0.0000 </r>
       <r>    1.0051    0.0000 </r>
       <r>    5.1719    0.0000 </r>
       <r>    5.9705    0.0000 </r>
      </set>
      <set comment="kpoint 212">
       <r>  -18.7525    1.0000 </r>
       <r>  -17.0463    1.0000 </r>
       <r>  -14.5269    1.0000 </r>
       <r>  -12.9207    1.0000 </r>
       <r>  -11.6907    1.0000 </r>
       <r>  -10.3164    1.0000 </r>
       <r>   -6.3893    1.0000 </r>
       <r>   -4.6567    1.0000 </r>
       <r>   -1.0769    0.0000 </r>
       <r>    0.8852    0.0000 </r>
       <r>    5.2399    0.0000 </r>
       <r>    6.0494    0.0000 </r>
      </set>
      <set comment="kpoint 213">
       <r>  -18.6848    1.0000 </r>
       <r>  -16.9997    1.0000 </r>
       <r>  -14.8224    1.0000 </r>
       <r>  -13.2201    1.0000 </r>
       <r>  -11.3379    1.0000 </r>
       <r>  -10.0394    1.0000 </r>
       <r>   -6.3289    1.0000 </r>
       <r>   -4.6803    1.0000 </r>
       <r>   -1.1271    0.0000 </r>
       <r>    0.7288    0.0000 </r>
       <r>    5.3339    0.0000 </r>
       <r>    6.1579    0.0000 </r>
      </set>
      <set comment="kpoint 214">
       <r>  -18.5980    1.0000 </r>
       <r>  -16.9473    1.0000 </r>
       <r>  -15.1101    1.0000 </r>
       <r>  -13.5269    1.0000 </r>
       <r>  -10.9746    1.0000 </r>
       <r>   -9.7695    1.0000 </r>
       <r>   -6.2526    1.0000 </r>
       <r>   -4.7159    1.0000 </r>
       <r>   -1.1741    0.0000 </r>
       <r>    0.5449    0.0000 </r>
       <r>    5.4502    0.0000 </r>
       <r>    6.1809    0.0000 </r>
      </set>
      <set comment="kpoint 215">
       <r>  -18.4926    1.0000 </r>
       <r>  -16.8991    1.0000 </r>
       <r>  -15.3709    1.0000 </r>
       <r>  -13.8316    1.0000 </r>
       <r>  -10.6144    1.0000 </r>
       <r>   -9.5218    1.0000 </r>
       <r>   -6.1614    1.0000 </r>
       <r>   -4.7662    1.0000 </r>
       <r>   -1.2086    0.0000 </r>
       <r>    0.3425    0.0000 </r>
       <r>    5.5442    0.0000 </r>
       <r>    5.7923    0.0000 </r>
      </set>
      <set comment="kpoint 216">
       <r>  -18.3691    1.0000 </r>
       <r>  -16.8730    1.0000 </r>
       <r>  -15.5820    1.0000 </r>
       <r>  -14.1286    1.0000 </r>
       <r>  -10.2678    1.0000 </r>
       <r>   -9.3087    1.0000 </r>
       <r>   -6.0566    1.0000 </r>
       <r>   -4.8335    1.0000 </r>
       <r>   -1.2222    0.0000 </r>
       <r>    0.1300    0.0000 </r>
       <r>    5.3062    0.0000 </r>
       <r>    5.8273    0.0000 </r>
      </set>
      <set comment="kpoint 217">
       <r>  -18.2282    1.0000 </r>
       <r>  -16.8962    1.0000 </r>
       <r>  -15.7135    1.0000 </r>
       <r>  -14.4140    1.0000 </r>
       <r>   -9.9443    1.0000 </r>
       <r>   -9.1406    1.0000 </r>
       <r>   -5.9398    1.0000 </r>
       <r>   -4.9185    1.0000 </r>
       <r>   -1.2085    0.0000 </r>
       <r>   -0.0848    0.0000 </r>
       <r>    5.0124    0.0000 </r>
       <r>    5.8351    0.0000 </r>
      </set>
      <set comment="kpoint 218">
       <r>  -18.0708    1.0000 </r>
       <r>  -16.9884    1.0000 </r>
       <r>  -15.7436    1.0000 </r>
       <r>  -14.6847    1.0000 </r>
       <r>   -9.6531    1.0000 </r>
       <r>   -9.0265    1.0000 </r>
       <r>   -5.8131    1.0000 </r>
       <r>   -5.0207    1.0000 </r>
       <r>   -1.1638    0.0000 </r>
       <r>   -0.2951    0.0000 </r>
       <r>    4.7944    0.0000 </r>
       <r>    5.4361    0.0000 </r>
      </set>
      <set comment="kpoint 219">
       <r>  -17.8985    1.0000 </r>
       <r>  -17.1402    1.0000 </r>
       <r>  -15.6810    1.0000 </r>
       <r>  -14.9379    1.0000 </r>
       <r>   -9.4036    1.0000 </r>
       <r>   -8.9734    1.0000 </r>
       <r>   -5.6792    1.0000 </r>
       <r>   -5.1377    1.0000 </r>
       <r>   -1.0867    0.0000 </r>
       <r>   -0.4947    0.0000 </r>
       <r>    4.6666    0.0000 </r>
       <r>    5.1075    0.0000 </r>
      </set>
      <set comment="kpoint 220">
       <r>  -17.7136    1.0000 </r>
       <r>  -17.3246    1.0000 </r>
       <r>  -15.5517    1.0000 </r>
       <r>  -15.1702    1.0000 </r>
       <r>   -9.2045    1.0000 </r>
       <r>   -8.9854    1.0000 </r>
       <r>   -5.5409    1.0000 </r>
       <r>   -5.2661    1.0000 </r>
       <r>   -0.9783    0.0000 </r>
       <r>   -0.6783    0.0000 </r>
       <r>    4.6346    0.0000 </r>
       <r>    4.8593    0.0000 </r>
      </set>
      <set comment="kpoint 221">
       <r>  -17.5200    1.0000 </r>
       <r>  -17.5200    1.0000 </r>
       <r>  -15.3772    1.0000 </r>
       <r>  -15.3772    1.0000 </r>
       <r>   -9.0632    1.0000 </r>
       <r>   -9.0632    1.0000 </r>
       <r>   -5.4019    1.0000 </r>
       <r>   -5.4019    1.0000 </r>
       <r>   -0.8409    0.0000 </r>
       <r>   -0.8409    0.0000 </r>
       <r>    4.6997    0.0000 </r>
       <r>    4.6997    0.0000 </r>
      </set>
      <set comment="kpoint 222">
       <r>  -18.4314    1.0000 </r>
       <r>  -17.5636    1.0000 </r>
       <r>  -13.5691    1.0000 </r>
       <r>  -12.7764    1.0000 </r>
       <r>  -12.0166    1.0000 </r>
       <r>  -11.2665    1.0000 </r>
       <r>   -6.0220    1.0000 </r>
       <r>   -5.0991    1.0000 </r>
       <r>   -0.5001    0.0000 </r>
       <r>    0.5514    0.0000 </r>
       <r>    5.6984    0.0000 </r>
       <r>    6.4539    0.0000 </r>
      </set>
      <set comment="kpoint 223">
       <r>  -18.4218    1.0000 </r>
       <r>  -17.5549    1.0000 </r>
       <r>  -13.6595    1.0000 </r>
       <r>  -12.8634    1.0000 </r>
       <r>  -11.9207    1.0000 </r>
       <r>  -11.1789    1.0000 </r>
       <r>   -6.0144    1.0000 </r>
       <r>   -5.0965    1.0000 </r>
       <r>   -0.5169    0.0000 </r>
       <r>    0.5276    0.0000 </r>
       <r>    5.7120    0.0000 </r>
       <r>    6.4709    0.0000 </r>
      </set>
      <set comment="kpoint 224">
       <r>  -18.3932    1.0000 </r>
       <r>  -17.5290    1.0000 </r>
       <r>  -13.8825    1.0000 </r>
       <r>  -13.0798    1.0000 </r>
       <r>  -11.6816    1.0000 </r>
       <r>  -10.9609    1.0000 </r>
       <r>   -5.9920    1.0000 </r>
       <r>   -5.0891    1.0000 </r>
       <r>   -0.5658    0.0000 </r>
       <r>    0.4580    0.0000 </r>
       <r>    5.7528    0.0000 </r>
       <r>    6.5214    0.0000 </r>
      </set>
      <set comment="kpoint 225">
       <r>  -18.3456    1.0000 </r>
       <r>  -17.4864    1.0000 </r>
       <r>  -14.1666    1.0000 </r>
       <r>  -13.3589    1.0000 </r>
       <r>  -11.3720    1.0000 </r>
       <r>  -10.6814    1.0000 </r>
       <r>   -5.9551    1.0000 </r>
       <r>   -5.0780    1.0000 </r>
       <r>   -0.6412    0.0000 </r>
       <r>    0.3481    0.0000 </r>
       <r>    5.8203    0.0000 </r>
       <r>    6.6039    0.0000 </r>
      </set>
      <set comment="kpoint 226">
       <r>  -18.2794    1.0000 </r>
       <r>  -17.4280    1.0000 </r>
       <r>  -14.4712    1.0000 </r>
       <r>  -13.6624    1.0000 </r>
       <r>  -11.0339    1.0000 </r>
       <r>  -10.3814    1.0000 </r>
       <r>   -5.9046    1.0000 </r>
       <r>   -5.0651    1.0000 </r>
       <r>   -0.7352    0.0000 </r>
       <r>    0.2056    0.0000 </r>
       <r>    5.9127    0.0000 </r>
       <r>    6.7166    0.0000 </r>
      </set>
      <set comment="kpoint 227">
       <r>  -18.1949    1.0000 </r>
       <r>  -17.3557    1.0000 </r>
       <r>  -14.7763    1.0000 </r>
       <r>  -13.9718    1.0000 </r>
       <r>  -10.6894    1.0000 </r>
       <r>  -10.0837    1.0000 </r>
       <r>   -5.8416    1.0000 </r>
       <r>   -5.0528    1.0000 </r>
       <r>   -0.8383    0.0000 </r>
       <r>    0.0394    0.0000 </r>
       <r>    6.0183    0.0000 </r>
       <r>    6.4531    0.0000 </r>
      </set>
      <set comment="kpoint 228">
       <r>  -18.0927    1.0000 </r>
       <r>  -17.2726    1.0000 </r>
       <r>  -15.0698    1.0000 </r>
       <r>  -14.2775    1.0000 </r>
       <r>  -10.3524    1.0000 </r>
       <r>   -9.8030    1.0000 </r>
       <r>   -5.7676    1.0000 </r>
       <r>   -5.0445    1.0000 </r>
       <r>   -0.9401    0.0000 </r>
       <r>   -0.1409    0.0000 </r>
       <r>    5.9003    0.0000 </r>
       <r>    6.2429    0.0000 </r>
      </set>
      <set comment="kpoint 229">
       <r>  -17.9737    1.0000 </r>
       <r>  -17.1842    1.0000 </r>
       <r>  -15.3411    1.0000 </r>
       <r>  -14.5735    1.0000 </r>
       <r>  -10.0338    1.0000 </r>
       <r>   -9.5512    1.0000 </r>
       <r>   -5.6847    1.0000 </r>
       <r>   -5.0435    1.0000 </r>
       <r>   -1.0305    0.0000 </r>
       <r>   -0.3263    0.0000 </r>
       <r>    5.5056    0.0000 </r>
       <r>    5.9986    0.0000 </r>
      </set>
      <set comment="kpoint 230">
       <r>  -17.8393    1.0000 </r>
       <r>  -17.1012    1.0000 </r>
       <r>  -15.5768    1.0000 </r>
       <r>  -14.8554    1.0000 </r>
       <r>   -9.7436    1.0000 </r>
       <r>   -9.3390    1.0000 </r>
       <r>   -5.5954    1.0000 </r>
       <r>   -5.0534    1.0000 </r>
       <r>   -1.1004    0.0000 </r>
       <r>   -0.5084    0.0000 </r>
       <r>    5.1588    0.0000 </r>
       <r>    5.5718    0.0000 </r>
      </set>
      <set comment="kpoint 231">
       <r>  -17.6916    1.0000 </r>
       <r>  -17.0427    1.0000 </r>
       <r>  -15.7558    1.0000 </r>
       <r>  -15.1190    1.0000 </r>
       <r>   -9.4915    1.0000 </r>
       <r>   -9.1757    1.0000 </r>
       <r>   -5.5026    1.0000 </r>
       <r>   -5.0770    1.0000 </r>
       <r>   -1.1422    0.0000 </r>
       <r>   -0.6794    0.0000 </r>
       <r>    4.8886    0.0000 </r>
       <r>    5.2112    0.0000 </r>
      </set>
      <set comment="kpoint 232">
       <r>  -17.5342    1.0000 </r>
       <r>  -17.0365    1.0000 </r>
       <r>  -15.8494    1.0000 </r>
       <r>  -15.3595    1.0000 </r>
       <r>   -9.2865    1.0000 </r>
       <r>   -9.0695    1.0000 </r>
       <r>   -5.4099    1.0000 </r>
       <r>   -5.1161    1.0000 </r>
       <r>   -1.1506    0.0000 </r>
       <r>   -0.8322    0.0000 </r>
       <r>    4.7055    0.0000 </r>
       <r>    4.9275    0.0000 </r>
      </set>
      <set comment="kpoint 233">
       <r>  -17.3737    1.0000 </r>
       <r>  -17.1005    1.0000 </r>
       <r>  -15.8388    1.0000 </r>
       <r>  -15.5694    1.0000 </r>
       <r>   -9.1368    1.0000 </r>
       <r>   -9.0263    1.0000 </r>
       <r>   -5.3212    1.0000 </r>
       <r>   -5.1711    1.0000 </r>
       <r>   -1.1227    0.0000 </r>
       <r>   -0.9603    0.0000 </r>
       <r>    4.6165    0.0000 </r>
       <r>    4.7296    0.0000 </r>
      </set>
      <set comment="kpoint 234">
       <r>  -17.2221    1.0000 </r>
       <r>  -17.2221    1.0000 </r>
       <r>  -15.7363    1.0000 </r>
       <r>  -15.7363    1.0000 </r>
       <r>   -9.0489    1.0000 </r>
       <r>   -9.0489    1.0000 </r>
       <r>   -5.2403    1.0000 </r>
       <r>   -5.2403    1.0000 </r>
       <r>   -1.0585    0.0000 </r>
       <r>   -1.0585    0.0000 </r>
       <r>    4.6246    0.0000 </r>
       <r>    4.6246    0.0000 </r>
      </set>
      <set comment="kpoint 235">
       <r>  -18.0049    1.0000 </r>
       <r>  -18.0049    1.0000 </r>
       <r>  -13.1824    1.0000 </r>
       <r>  -13.1824    1.0000 </r>
       <r>  -11.6519    1.0000 </r>
       <r>  -11.6519    1.0000 </r>
       <r>   -5.5641    1.0000 </r>
       <r>   -5.5641    1.0000 </r>
       <r>    0.0151    0.0000 </r>
       <r>    0.0151    0.0000 </r>
       <r>    6.3094    0.0000 </r>
       <r>    6.3094    0.0000 </r>
      </set>
      <set comment="kpoint 236">
       <r>  -17.9956    1.0000 </r>
       <r>  -17.9956    1.0000 </r>
       <r>  -13.2716    1.0000 </r>
       <r>  -13.2716    1.0000 </r>
       <r>  -11.5596    1.0000 </r>
       <r>  -11.5596    1.0000 </r>
       <r>   -5.5585    1.0000 </r>
       <r>   -5.5585    1.0000 </r>
       <r>   -0.0058    0.0000 </r>
       <r>   -0.0058    0.0000 </r>
       <r>    6.3230    0.0000 </r>
       <r>    6.3230    0.0000 </r>
      </set>
      <set comment="kpoint 237">
       <r>  -17.9680    1.0000 </r>
       <r>  -17.9680    1.0000 </r>
       <r>  -13.4923    1.0000 </r>
       <r>  -13.4923    1.0000 </r>
       <r>  -11.3301    1.0000 </r>
       <r>  -11.3301    1.0000 </r>
       <r>   -5.5420    1.0000 </r>
       <r>   -5.5420    1.0000 </r>
       <r>   -0.0669    0.0000 </r>
       <r>   -0.0669    0.0000 </r>
       <r>    6.3635    0.0000 </r>
       <r>    6.3635    0.0000 </r>
      </set>
      <set comment="kpoint 238">
       <r>  -17.9222    1.0000 </r>
       <r>  -17.9222    1.0000 </r>
       <r>  -13.7753    1.0000 </r>
       <r>  -13.7753    1.0000 </r>
       <r>  -11.0343    1.0000 </r>
       <r>  -11.0343    1.0000 </r>
       <r>   -5.5152    1.0000 </r>
       <r>   -5.5152    1.0000 </r>
       <r>   -0.1629    0.0000 </r>
       <r>   -0.1629    0.0000 </r>
       <r>    6.4301    0.0000 </r>
       <r>    6.4301    0.0000 </r>
      </set>
      <set comment="kpoint 239">
       <r>  -17.8586    1.0000 </r>
       <r>  -17.8586    1.0000 </r>
       <r>  -14.0810    1.0000 </r>
       <r>  -14.0810    1.0000 </r>
       <r>  -10.7139    1.0000 </r>
       <r>  -10.7139    1.0000 </r>
       <r>   -5.4794    1.0000 </r>
       <r>   -5.4794    1.0000 </r>
       <r>   -0.2858    0.0000 </r>
       <r>   -0.2858    0.0000 </r>
       <r>    6.5192    0.0000 </r>
       <r>    6.5192    0.0000 </r>
      </set>
      <set comment="kpoint 240">
       <r>  -17.7781    1.0000 </r>
       <r>  -17.7781    1.0000 </r>
       <r>  -14.3908    1.0000 </r>
       <r>  -14.3908    1.0000 </r>
       <r>  -10.3913    1.0000 </r>
       <r>  -10.3913    1.0000 </r>
       <r>   -5.4363    1.0000 </r>
       <r>   -5.4363    1.0000 </r>
       <r>   -0.4264    0.0000 </r>
       <r>   -0.4264    0.0000 </r>
       <r>    6.5720    0.0000 </r>
       <r>    6.5720    0.0000 </r>
      </set>
      <set comment="kpoint 241">
       <r>  -17.6819    1.0000 </r>
       <r>  -17.6819    1.0000 </r>
       <r>  -14.6942    1.0000 </r>
       <r>  -14.6942    1.0000 </r>
       <r>  -10.0808    1.0000 </r>
       <r>  -10.0808    1.0000 </r>
       <r>   -5.3884    1.0000 </r>
       <r>   -5.3884    1.0000 </r>
       <r>   -0.5749    0.0000 </r>
       <r>   -0.5749    0.0000 </r>
       <r>    6.1820    0.0000 </r>
       <r>    6.1820    0.0000 </r>
      </set>
      <set comment="kpoint 242">
       <r>  -17.5719    1.0000 </r>
       <r>  -17.5719    1.0000 </r>
       <r>  -14.9844    1.0000 </r>
       <r>  -14.9844    1.0000 </r>
       <r>   -9.7939    1.0000 </r>
       <r>   -9.7939    1.0000 </r>
       <r>   -5.3384    1.0000 </r>
       <r>   -5.3384    1.0000 </r>
       <r>   -0.7214    0.0000 </r>
       <r>   -0.7214    0.0000 </r>
       <r>    5.7355    0.0000 </r>
       <r>    5.7355    0.0000 </r>
      </set>
      <set comment="kpoint 243">
       <r>  -17.4515    1.0000 </r>
       <r>  -17.4515    1.0000 </r>
       <r>  -15.2550    1.0000 </r>
       <r>  -15.2550    1.0000 </r>
       <r>   -9.5409    1.0000 </r>
       <r>   -9.5409    1.0000 </r>
       <r>   -5.2899    1.0000 </r>
       <r>   -5.2899    1.0000 </r>
       <r>   -0.8568    0.0000 </r>
       <r>   -0.8568    0.0000 </r>
       <r>    5.3457    0.0000 </r>
       <r>    5.3457    0.0000 </r>
      </set>
      <set comment="kpoint 244">
       <r>  -17.3268    1.0000 </r>
       <r>  -17.3268    1.0000 </r>
       <r>  -15.4981    1.0000 </r>
       <r>  -15.4981    1.0000 </r>
       <r>   -9.3315    1.0000 </r>
       <r>   -9.3315    1.0000 </r>
       <r>   -5.2465    1.0000 </r>
       <r>   -5.2465    1.0000 </r>
       <r>   -0.9724    0.0000 </r>
       <r>   -0.9724    0.0000 </r>
       <r>    5.0280    0.0000 </r>
       <r>    5.0280    0.0000 </r>
      </set>
      <set comment="kpoint 245">
       <r>  -17.2091    1.0000 </r>
       <r>  -17.2091    1.0000 </r>
       <r>  -15.7011    1.0000 </r>
       <r>  -15.7011    1.0000 </r>
       <r>   -9.1745    1.0000 </r>
       <r>   -9.1745    1.0000 </r>
       <r>   -5.2120    1.0000 </r>
       <r>   -5.2120    1.0000 </r>
       <r>   -1.0609    0.0000 </r>
       <r>   -1.0609    0.0000 </r>
       <r>    4.7928    0.0000 </r>
       <r>    4.7928    0.0000 </r>
      </set>
      <set comment="kpoint 246">
       <r>  -17.1186    1.0000 </r>
       <r>  -17.1186    1.0000 </r>
       <r>  -15.8431    1.0000 </r>
       <r>  -15.8431    1.0000 </r>
       <r>   -9.0770    1.0000 </r>
       <r>   -9.0770    1.0000 </r>
       <r>   -5.1898    1.0000 </r>
       <r>   -5.1898    1.0000 </r>
       <r>   -1.1166    0.0000 </r>
       <r>   -1.1166    0.0000 </r>
       <r>    4.6482    0.0000 </r>
       <r>    4.6482    0.0000 </r>
      </set>
      <set comment="kpoint 247">
       <r>  -17.0833    1.0000 </r>
       <r>  -17.0833    1.0000 </r>
       <r>  -15.8956    1.0000 </r>
       <r>  -15.8956    1.0000 </r>
       <r>   -9.0440    1.0000 </r>
       <r>   -9.0440    1.0000 </r>
       <r>   -5.1821    1.0000 </r>
       <r>   -5.1821    1.0000 </r>
       <r>   -1.1356    0.0000 </r>
       <r>   -1.1356    0.0000 </r>
       <r>    4.5994    0.0000 </r>
       <r>    4.5994    0.0000 </r>
      </set>
     </set>
    </set>
   </array>
  </eigenvalues>
  <separator name="orbital magnetization" >
   <v name="MAGDIPOLOUT">      0.00000000      0.00000000      0.00000000</v>
  </separator>
 </calculation>
 <structure name="finalpos" >
  <crystal>
   <varray name="basis" >
    <v>       4.26205500       0.00000000       0.00000000 </v>
    <v>       0.00000000       2.50431060       0.00000000 </v>
    <v>       0.00000000       0.00000000      19.75338111 </v>
   </varray>
   <i name="volume">    210.83790140 </i>
   <varray name="rec_basis" >
    <v>       0.23462860       0.00000000       0.00000000 </v>
    <v>       0.00000000       0.39931149       0.00000000 </v>
    <v>       0.00000000       0.00000000       0.05062424 </v>
   </varray>
  </crystal>
  <varray name="positions" >
   <v>       0.00039255       0.00000000       0.00000000 </v>
   <v>       0.16627412       0.50000000      -0.00000000 </v>
   <v>       0.50039255       0.50000000       0.00000000 </v>
   <v>       0.66627412       0.00000000      -0.00000000 </v>
  </varray>
 </structure>
</modeling>
