gr                                      
           1
     4.262055    0.000000    0.000000
     0.000000    2.504311    0.000000
     0.000000    0.000000   19.753381
   C 
   4
Direct configuration=     1
   0.00039382  0.00000000  0.00000000
   0.16627284  0.50000000  0.00000000
   0.50039382  0.50000000  0.00000000
   0.66627284  0.00000000  0.00000000
Direct configuration=     2
   0.00038735 -0.00000000  0.00000000
   0.16627932  0.50000000 -0.00000000
   0.50038735  0.50000000  0.00000000
   0.66627932  0.00000000 -0.00000000
Direct configuration=     3
   0.00039255 -0.00000000  0.00000000
   0.16627412  0.50000000 -0.00000000
   0.50039255  0.50000000  0.00000000
   0.66627412 -0.00000000 -0.00000000
Direct configuration=     4
   0.00039255  0.00000000  0.00000000
   0.16627412  0.50000000 -0.00000000
   0.50039255  0.50000000  0.00000000
   0.66627412  0.00000000 -0.00000000
Direct configuration=     5
   0.00039255  0.00000000  0.00000000
   0.16627412  0.50000000 -0.00000000
   0.50039255  0.50000000  0.00000000
   0.66627412  0.00000000 -0.00000000
