    4    4  400    1
  0.5270948E+02  0.4380097E-09  0.2457178E-09  0.1958973E-08  0.5000000E-15
  1.000000000000000E-004
  CAR 
 gr                                      
     16    247     12
 
  0.0000000E+00  0.0000000E+00  0.0000000E+00  0.1157407E-02
    1      -22.080597
    2      -17.257556
    3      -15.832518
    4      -10.225332
    5       -8.804647
    6       -6.006586
    7       -5.727147
    8       -5.335412
    9       -1.186008
   10        0.544802
   11        1.342889
   12        1.736334
 
  0.4166667E-01  0.0000000E+00  0.0000000E+00  0.2314815E-02
    1      -22.070839
    2      -17.375723
    3      -15.699372
    4      -10.213754
    5       -8.795202
    6       -6.050875
    7       -5.747213
    8       -5.394124
    9       -1.111580
   10        0.557999
   11        1.356280
   12        1.749893
 
  0.8333333E-01  0.0000000E+00  0.0000000E+00  0.2314815E-02
    1      -22.041571
    2      -17.649150
    3      -15.381081
    4      -10.179038
    5       -8.766917
    6       -6.181629
    7       -5.806370
    8       -5.558409
    9       -0.900299
   10        0.597600
   11        1.396446
   12        1.790572
 
  0.1250000E+00  0.0000000E+00  0.0000000E+00  0.2314815E-02
    1      -21.992812
    2      -17.979502
    3      -14.976211
    4      -10.121242
    5       -8.719945
    6       -6.392920
    7       -5.901649
    8       -5.801037
    9       -0.579872
   10        0.663625
   11        1.463374
   12        1.858374
 
  0.1666667E+00  0.0000000E+00  0.0000000E+00  0.2314815E-02
    1      -21.924599
    2      -18.324327
    3      -14.527601
    4      -10.040465
    5       -8.654546
    6       -6.676085
    7       -6.093597
    8       -6.028593
    9       -0.179512
   10        0.756097
   11        1.557036
   12        1.953304
 
  0.2083333E+00  0.0000000E+00  0.0000000E+00  0.2314815E-02
    1      -21.836982
    2      -18.667253
    3      -14.052187
    4       -9.936850
    5       -8.571093
    6       -7.021017
    7       -6.413812
    8       -6.181823
    9        0.277345
   10        0.875034
   11        1.677390
   12        2.075365
 
  0.2500000E+00  0.0000000E+00  0.0000000E+00  0.2314815E-02
    1      -21.730026
    2      -19.001127
    3      -13.557866
    4       -9.810586
    5       -8.470087
    6       -7.417321
    7       -6.746186
    8       -6.355589
    9        0.773636
   10        1.020435
   11        1.824368
   12        2.224559
 
  0.2916667E+00  0.0000000E+00  0.0000000E+00  0.2314815E-02
    1      -21.603815
    2      -19.322357
    3      -13.049184
    4       -9.661922
    5       -8.352172
    6       -7.855121
    7       -7.080340
    8       -6.544214
    9        1.192287
   10        1.296920
   11        1.997864
   12        2.400884
 
  0.3333333E+00  0.0000000E+00  0.0000000E+00  0.2314815E-02
    1      -21.458453
    2      -19.628913
    3      -12.529363
    4       -9.491175
    5       -8.325506
    6       -8.218148
    7       -7.409317
    8       -6.742400
    9        1.390559
   10        1.837425
   11        2.197695
   12        2.604337
 
  0.3750000E+00  0.0000000E+00  0.0000000E+00  0.2314815E-02
    1      -21.294065
    2      -19.919533
    3      -12.001130
    4       -9.298741
    5       -8.820688
    6       -8.069009
    7       -7.728361
    8       -6.945382
    9        1.615202
   10        2.385985
   11        2.423519
   12        2.834908
 
  0.4166667E+00  0.0000000E+00  0.0000000E+00  0.2314815E-02
    1      -21.110800
    2      -20.193368
    3      -11.467119
    4       -9.333989
    5       -9.085117
    6       -8.034143
    7       -7.905965
    8       -7.148994
    9        1.866153
   10        2.674566
   11        2.928465
   12        3.092587
 
  0.4583333E+00  0.0000000E+00  0.0000000E+00  0.2314815E-02
    1      -20.908844
    2      -20.449814
    3      -10.930098
    4       -9.859739
    5       -8.850930
    6       -8.324269
    7       -7.730483
    8       -7.349657
    9        2.143324
   10        2.775822
   11        2.948587
   12        3.370610
 
  0.5000000E+00  0.0000000E+00  0.0000000E+00  0.1157407E-02
    1      -20.688423
    2      -20.688423
    3      -10.393136
    4      -10.393136
    5       -8.596974
    6       -8.596974
    7       -7.544336
    8       -7.544336
    9        2.446601
   10        2.446601
   11        3.234618
   12        3.234618
 
  0.0000000E+00  0.2777778E-01  0.0000000E+00  0.2314815E-02
    1      -22.066768
    2      -17.245552
    3      -15.820727
    4      -10.208919
    5       -8.867967
    6       -6.032678
    7       -5.786206
    8       -5.318725
    9       -1.188447
   10        0.563537
   11        1.361814
   12        1.755497
 
  0.4166667E-01  0.2777778E-01  0.0000000E+00  0.4629630E-02
    1      -22.057011
    2      -17.363600
    3      -15.687743
    4      -10.197345
    5       -8.858510
    6       -6.077687
    7       -5.804947
    8       -5.377550
    9       -1.114007
   10        0.576735
   11        1.375203
   12        1.769056
 
  0.8333333E-01  0.2777778E-01  0.0000000E+00  0.4629630E-02
    1      -22.027747
    2      -17.636806
    3      -15.369808
    4      -10.162641
    5       -8.830190
    6       -6.209291
    7       -5.861548
    8       -5.542104
    9       -0.902764
   10        0.616335
   11        1.415368
   12        1.809735
 
  0.1250000E+00  0.2777778E-01  0.0000000E+00  0.4629630E-02
    1      -21.978996
    2      -17.966945
    3      -14.965379
    4      -10.104864
    5       -8.783157
    6       -6.419953
    7       -5.954935
    8       -5.785022
    9       -0.582559
   10        0.682361
   11        1.482293
   12        1.877537
 
  0.1666667E+00  0.2777778E-01  0.0000000E+00  0.4629630E-02
    1      -21.910794
    2      -18.311585
    3      -14.517284
    4      -10.024114
    5       -8.717666
    6       -6.700831
    7       -6.081185
    8       -6.077807
    9       -0.182690
   10        0.774835
   11        1.575951
   12        1.972468
 
  0.2083333E+00  0.2777778E-01  0.0000000E+00  0.4629630E-02
    1      -21.823192
    2      -18.654350
    3      -14.042470
    4       -9.920533
    5       -8.634086
    6       -7.042375
    7       -6.398163
    8       -6.234683
    9        0.273383
   10        0.893775
   11        1.696299
   12        2.094530
 
  0.2500000E+00  0.2777778E-01  0.0000000E+00  0.4629630E-02
    1      -21.716254
    2      -18.988086
    3      -13.548851
    4       -9.794311
    5       -8.532909
    6       -7.434799
    7       -6.730603
    8       -6.409308
    9        0.768616
   10        1.039181
   11        1.843272
   12        2.243726
 
  0.2916667E+00  0.2777778E-01  0.0000000E+00  0.4629630E-02
    1      -21.590067
    2      -19.309197
    3      -13.040992
    4       -9.645698
    5       -8.414768
    6       -7.868670
    7       -7.064767
    8       -6.599086
    9        1.211040
   10        1.290601
   11        2.016764
   12        2.420054
 
  0.3333333E+00  0.2777778E-01  0.0000000E+00  0.4629630E-02
    1      -21.444732
    2      -19.615650
    3      -12.522140
    4       -9.475007
    5       -8.335343
    6       -8.280455
    7       -7.393714
    8       -6.798512
    9        1.409318
   10        1.829634
   11        2.216595
   12        2.623509
 
  0.3750000E+00  0.2777778E-01  0.0000000E+00  0.4629630E-02
    1      -21.280376
    2      -19.906180
    3      -11.995051
    4       -9.282637
    5       -8.827163
    6       -8.130948
    7       -7.712704
    8       -7.002699
    9        1.633971
   10        2.376726
   11        2.442424
   12        2.854085
 
  0.4166667E+00  0.2777778E-01  0.0000000E+00  0.4629630E-02
    1      -21.097149
    2      -20.179937
    3      -11.462389
    4       -9.337500
    5       -9.069082
    6       -8.018417
    7       -7.967443
    8       -7.207414
    9        1.884931
   10        2.693487
   11        2.918555
   12        3.111771
 
  0.4583333E+00  0.2777778E-01  0.0000000E+00  0.4629630E-02
    1      -20.895237
    2      -20.436315
    3      -10.926961
    4       -9.860681
    5       -8.834969
    6       -8.308466
    7       -7.791392
    8       -7.409046
    9        2.162115
   10        2.794657
   11        2.967520
   12        3.371418
 
  0.5000000E+00  0.2777778E-01  0.0000000E+00  0.2314815E-02
    1      -20.674866
    2      -20.674866
    3      -10.391875
    4      -10.391875
    5       -8.581092
    6       -8.581092
    7       -7.604554
    8       -7.604554
    9        2.465409
   10        2.465409
   11        3.253140
   12        3.253140
 
  0.0000000E+00  0.5555556E-01  0.0000000E+00  0.2314815E-02
    1      -22.025290
    2      -17.209542
    3      -15.785494
    4      -10.159716
    5       -9.052794
    6       -6.110564
    7       -5.958523
    8       -5.268685
    9       -1.196570
   10        0.619742
   11        1.418580
   12        1.812987
 
  0.4166667E-01  0.5555556E-01  0.0000000E+00  0.4629630E-02
    1      -22.015537
    2      -17.327240
    3      -15.652996
    4      -10.148153
    5       -9.043299
    6       -6.160535
    7       -5.970522
    8       -5.327861
    9       -1.122090
   10        0.632939
   11        1.431967
   12        1.826546
 
  0.8333333E-01  0.5555556E-01  0.0000000E+00  0.4629630E-02
    1      -21.986287
    2      -17.599789
    3      -15.336130
    4      -10.113484
    5       -9.014861
    6       -6.297516
    7       -6.016712
    8       -5.493242
    9       -0.910955
   10        0.672539
   11        1.472125
   12        1.867225
 
  0.1250000E+00  0.5555556E-01  0.0000000E+00  0.4629630E-02
    1      -21.937560
    2      -17.929293
    3      -14.933037
    4      -10.055767
    5       -8.967621
    6       -6.506978
    7       -6.103829
    8       -5.737046
    9       -0.591424
   10        0.738565
   11        1.539040
   12        1.935027
 
  0.1666667E+00  0.5555556E-01  0.0000000E+00  0.4629630E-02
    1      -21.869392
    2      -18.273376
    3      -14.486511
    4       -9.975099
    5       -8.901824
    6       -6.780719
    7       -6.228339
    8       -6.030522
    9       -0.193058
   10        0.831041
   11        1.632684
   12        2.029959
 
  0.2083333E+00  0.5555556E-01  0.0000000E+00  0.4629630E-02
    1      -21.781835
    2      -18.615661
    3      -14.013531
    4       -9.871623
    5       -8.817817
    6       -7.111473
    7       -6.383305
    8       -6.351305
    9        0.260620
   10        0.949987
   11        1.753017
   12        2.152024
 
  0.2500000E+00  0.5555556E-01  0.0000000E+00  0.4629630E-02
    1      -21.674952
    2      -18.948982
    3      -13.522063
    4       -9.745530
    5       -8.716069
    6       -7.491510
    7       -6.683943
    8       -6.561265
    9        0.752612
   10        1.095403
   11        1.899974
   12        2.301224
 
  0.2916667E+00  0.5555556E-01  0.0000000E+00  0.4629630E-02
    1      -21.548834
    2      -19.269734
    3      -13.016738
    4       -9.597067
    5       -8.597181
    6       -7.912845
    7       -7.018132
    8       -6.755231
    9        1.267275
   10        1.270616
   11        2.073453
   12        2.477558
 
  0.3333333E+00  0.5555556E-01  0.0000000E+00  0.4629630E-02
    1      -21.403581
    2      -19.575875
    3      -12.500876
    4       -9.426550
    5       -8.461907
    6       -8.367696
    7       -7.346986
    8       -6.959035
    9        1.465570
   10        1.805119
   11        2.273280
   12        2.681021
 
  0.3750000E+00  0.5555556E-01  0.0000000E+00  0.4629630E-02
    1      -21.239321
    2      -19.866136
    3      -11.977324
    4       -9.234373
    5       -8.848841
    6       -8.311182
    7       -7.665808
    8       -7.167394
    9        1.690242
   10        2.347599
   11        2.499128
   12        2.911608
 
  0.4166667E+00  0.5555556E-01  0.0000000E+00  0.4629630E-02
    1      -21.056207
    2      -20.139659
    3      -11.448851
    4       -9.349801
    5       -9.021031
    6       -8.146150
    7       -7.971308
    8       -7.375871
    9        1.941225
   10        2.750242
   11        2.886779
   12        3.169307
 
  0.4583333E+00  0.5555556E-01  0.0000000E+00  0.4629630E-02
    1      -20.854426
    2      -20.395834
    3      -10.918384
    4       -9.864885
    5       -8.787146
    6       -8.261123
    7       -7.968210
    8       -7.580777
    9        2.218435
   10        2.851068
   11        3.024312
   12        3.366836
 
  0.5000000E+00  0.5555556E-01  0.0000000E+00  0.2314815E-02
    1      -20.634208
    2      -20.634208
    3      -10.389165
    4      -10.389165
    5       -8.533507
    6       -8.533507
    7       -7.779062
    8       -7.779062
    9        2.521765
   10        2.521765
   11        3.308449
   12        3.308449
 
  0.0000000E+00  0.8333333E-01  0.0000000E+00  0.2314815E-02
    1      -21.956197
    2      -17.149539
    3      -15.727264
    4      -10.077828
    5       -9.345178
    6       -6.239065
    7       -6.231046
    8       -5.185357
    9       -1.212795
   10        0.713415
   11        1.513165
   12        1.908803
 
  0.4166667E-01  0.8333333E-01  0.0000000E+00  0.4629630E-02
    1      -21.946453
    2      -17.266671
    3      -15.595570
    4      -10.066286
    5       -9.335604
    6       -6.324397
    7       -6.204817
    8       -5.245153
    9       -1.138231
   10        0.726610
   11        1.526548
   12        1.922362
 
  0.8333333E-01  0.8333333E-01  0.0000000E+00  0.4629630E-02
    1      -21.917226
    2      -17.538147
    3      -15.280499
    4      -10.031677
    5       -9.306925
    6       -6.472305
    7       -6.231957
    8       -5.411985
    9       -0.927257
   10        0.766205
   11        1.566695
   12        1.963040
 
  0.1250000E+00  0.8333333E-01  0.0000000E+00  0.4629630E-02
    1      -21.868539
    2      -17.866601
    3      -14.879683
    4       -9.974060
    5       -9.259267
    6       -6.677244
    7       -6.311465
    8       -5.657335
    9       -0.608874
   10        0.832224
   11        1.633589
   12        2.030843
 
  0.1666667E+00  0.8333333E-01  0.0000000E+00  0.4629630E-02
    1      -21.800429
    2      -18.209757
    3      -14.435857
    4       -9.893533
    5       -9.192849
    6       -6.936499
    7       -6.435928
    8       -5.952001
    9       -0.213099
   10        0.924695
   11        1.727208
   12        2.125775
 
  0.2083333E+00  0.8333333E-01  0.0000000E+00  0.4629630E-02
    1      -21.712945
    2      -18.551238
    3      -13.966060
    4       -9.790238
    5       -9.107983
    6       -7.246579
    7       -6.596178
    8       -6.273513
    9        0.236441
   10        1.043638
   11        1.847510
   12        2.247841
 
  0.2500000E+00  0.8333333E-01  0.0000000E+00  0.4629630E-02
    1      -21.606157
    2      -18.883864
    3      -13.478350
    4       -9.664365
    5       -9.005087
    6       -7.603049
    7       -6.782653
    8       -6.606479
    9        0.722829
   10        1.189057
   11        1.994436
   12        2.397045
 
  0.2916667E+00  0.8333333E-01  0.0000000E+00  0.4629630E-02
    1      -21.480153
    2      -19.204015
    3      -12.977478
    4       -9.516163
    5       -8.884700
    6       -8.000515
    7       -6.986527
    8       -6.940700
    9        1.233936
   10        1.360938
   11        2.167889
   12        2.573386
 
  0.3333333E+00  0.8333333E-01  0.0000000E+00  0.4629630E-02
    1      -21.335036
    2      -19.509635
    3      -12.466909
    4       -9.345944
    5       -8.747499
    6       -8.432891
    7       -7.269384
    8       -7.200305
    9        1.559246
   10        1.760528
   11        2.367708
   12        2.776859
 
  0.3750000E+00  0.8333333E-01  0.0000000E+00  0.4629630E-02
    1      -21.170937
    2      -19.799444
    3      -11.949661
    4       -9.154100
    5       -8.893840
    6       -8.594321
    7       -7.587908
    8       -7.417918
    9        1.783932
   10        2.294706
   11        2.593584
   12        3.007458
 
  0.4166667E+00  0.8333333E-01  0.0000000E+00  0.4629630E-02
    1      -20.988011
    2      -20.072575
    3      -11.428711
    4       -9.377187
    5       -8.941124
    6       -8.426201
    7       -7.893036
    8       -7.634554
    9        2.034930
   10        2.827559
   11        2.844794
   12        3.265175
 
  0.4583333E+00  0.8333333E-01  0.0000000E+00  0.4629630E-02
    1      -20.786450
    2      -20.328410
    3      -10.907227
    4       -9.877200
    5       -8.707633
    6       -8.244408
    7       -8.182442
    8       -7.846418
    9        2.312156
   10        2.944843
   11        3.118945
   12        3.331209
 
  0.5000000E+00  0.8333333E-01  0.0000000E+00  0.2314815E-02
    1      -20.566488
    2      -20.566488
    3      -10.388729
    4      -10.388729
    5       -8.454406
    6       -8.454406
    7       -8.050503
    8       -8.050503
    9        2.615506
   10        2.615506
   11        3.399258
   12        3.399258
 
  0.0000000E+00  0.1111111E+00  0.0000000E+00  0.2314815E-02
    1      -21.859551
    2      -17.065563
    3      -15.646873
    4       -9.963437
    5       -9.725787
    6       -6.586056
    7       -6.416179
    8       -5.068851
    9       -1.241152
   10        0.844552
   11        1.645529
   12        2.042948
 
  0.4166667E-01  0.1111111E+00  0.0000000E+00  0.4629630E-02
    1      -21.849818
    2      -17.181944
    3      -15.516291
    4       -9.951924
    5       -9.716072
    6       -6.639116
    7       -6.418431
    8       -5.129594
    9       -1.166428
   10        0.857743
   11        1.658906
   12        2.056506
 
  0.8333333E-01  0.1111111E+00  0.0000000E+00  0.4629630E-02
    1      -21.820625
    2      -17.451962
    3      -15.203768
    4       -9.917403
    5       -9.686960
    6       -6.772909
    7       -6.448879
    8       -5.298628
    9       -0.955620
   10        0.897325
   11        1.699033
   12        2.097182
 
  0.1250000E+00  0.1111111E+00  0.0000000E+00  0.4629630E-02
    1      -21.771994
    2      -17.778964
    3      -14.806266
    4       -9.859933
    5       -9.638552
    6       -6.963135
    7       -6.526800
    8       -5.546292
    9       -0.638875
   10        0.963324
   11        1.765895
   12        2.164981
 
  0.1666667E+00  0.1111111E+00  0.0000000E+00  0.4629630E-02
    1      -21.703962
    2      -18.120825
    3      -14.366436
    4       -9.779612
    5       -9.571020
    6       -7.200390
    7       -6.653509
    8       -5.842712
    9       -0.246889
   10        1.055771
   11        1.859471
   12        2.259910
 
  0.2083333E+00  0.1111111E+00  0.0000000E+00  0.4629630E-02
    1      -21.616584
    2      -18.461177
    3      -13.901409
    4       -9.676582
    5       -9.484609
    6       -7.480392
    7       -6.822660
    8       -6.165278
    9        0.196572
   10        1.174692
   11        1.979721
   12        2.381975
 
  0.2500000E+00  0.1111111E+00  0.0000000E+00  0.4629630E-02
    1      -21.509929
    2      -18.792824
    3      -13.419399
    4       -9.551033
    5       -9.379646
    6       -7.800817
    7       -7.024236
    8       -6.498700
    9        0.674724
   10        1.320093
   11        2.126591
   12        2.531180
 
  0.2916667E+00  0.1111111E+00  0.0000000E+00  0.4629630E-02
    1      -21.384084
    2      -19.112125
    3      -12.925355
    4       -9.403211
    5       -9.256548
    6       -8.159729
    7       -7.247065
    8       -6.832941
    9        1.175681
   10        1.491960
   11        2.299994
   12        2.707525
 
  0.3333333E+00  0.1111111E+00  0.0000000E+00  0.4629630E-02
    1      -21.239159
    2      -19.417009
    3      -12.422998
    4       -9.233429
    5       -9.115834
    6       -8.554426
    7       -7.480861
    8       -7.161351
    9        1.690260
   10        1.690553
   11        2.499788
   12        2.911005
 
  0.3750000E+00  0.1111111E+00  0.0000000E+00  0.4629630E-02
    1      -21.075286
    2      -19.706179
    3      -11.915659
    4       -9.042077
    5       -8.980929
    6       -8.958145
    7       -7.717397
    8       -7.479417
    9        1.914938
   10        2.212067
   11        2.725701
   12        3.141616
 
  0.4166667E+00  0.1111111E+00  0.0000000E+00  0.4629630E-02
    1      -20.892626
    2      -19.978757
    3      -11.406703
    4       -9.434190
    5       -8.829641
    6       -8.784266
    7       -7.950682
    8       -7.783982
    9        2.165925
   10        2.733226
   11        2.977070
   12        3.399347
 
  0.4583333E+00  0.1111111E+00  0.0000000E+00  0.4629630E-02
    1      -20.691376
    2      -20.234112
    3      -10.899761
    4       -9.908672
    5       -8.596730
    6       -8.595169
    7       -8.176545
    8       -8.072775
    9        2.443134
   10        3.075764
   11        3.242099
   12        3.251386
 
  0.5000000E+00  0.1111111E+00  0.0000000E+00  0.2314815E-02
    1      -20.471773
    2      -20.471773
    3      -10.398894
    4      -10.398894
    5       -8.392072
    6       -8.392072
    7       -8.344115
    8       -8.344115
    9        2.746458
   10        2.746458
   11        3.518092
   12        3.518092
 
  0.0000000E+00  0.1388889E+00  0.0000000E+00  0.2314815E-02
    1      -21.735438
    2      -16.957646
    3      -15.545729
    4      -10.173434
    5       -9.816801
    6       -7.004837
    7       -6.639071
    8       -4.919324
    9       -1.287222
   10        1.013141
   11        1.815613
   12        2.215422
 
  0.4166667E-01  0.1388889E+00  0.0000000E+00  0.4629630E-02
    1      -21.725719
    2      -17.073133
    3      -15.416560
    4      -10.163476
    5       -9.805329
    6       -7.050836
    7       -6.643868
    8       -4.981444
    9       -1.212194
   10        1.026324
   11        1.828980
   12        2.228978
 
  0.8333333E-01  0.1388889E+00  0.0000000E+00  0.4629630E-02
    1      -21.696568
    2      -17.341363
    3      -15.107404
    4      -10.133621
    5       -9.770928
    6       -7.174627
    7       -6.671361
    8       -5.153638
    9       -1.001442
   10        1.065882
   11        1.869075
   12        2.269650
 
  0.1250000E+00  0.1388889E+00  0.0000000E+00  0.4629630E-02
    1      -21.648009
    2      -17.666532
    3      -14.714442
    4      -10.083920
    5       -9.713659
    6       -7.354055
    7       -6.740313
    8       -5.404562
    9       -0.686803
   10        1.131842
   11        1.935885
   12        2.337442
 
  0.1666667E+00  0.1388889E+00  0.0000000E+00  0.4629630E-02
    1      -21.580082
    2      -18.006731
    3      -14.280224
    4      -10.014458
    5       -9.633619
    6       -7.574935
    7       -6.859081
    8       -5.703398
    9       -0.299915
   10        1.224239
   11        2.029389
   12        2.432362
 
  0.2083333E+00  0.1388889E+00  0.0000000E+00  0.4629630E-02
    1      -21.492840
    2      -18.345620
    3      -13.822029
    4       -9.925353
    5       -9.530950
    6       -7.829556
    7       -7.027135
    8       -6.027371
    9        0.135308
   10        1.343105
   11        2.149551
   12        2.554419
 
  0.2500000E+00  0.1388889E+00  0.0000000E+00  0.4629630E-02
    1      -21.386353
    2      -18.675994
    3      -13.348329
    4       -9.816749
    5       -9.405843
    6       -8.114245
    7       -7.237870
    8       -6.361363
    9        0.602302
   10        1.488453
   11        2.296321
   12        2.703618
 
  0.2916667E+00  0.1388889E+00  0.0000000E+00  0.4629630E-02
    1      -21.260716
    2      -18.994190
    3      -12.864430
    4       -9.688812
    5       -9.258543
    6       -8.428106
    7       -7.480564
    8       -6.695575
    9        1.089517
   10        1.660272
   11        2.469627
   12        2.879960
 
  0.3333333E+00  0.1388889E+00  0.0000000E+00  0.4629630E-02
    1      -21.116038
    2      -19.298115
    3      -12.374517
    4       -9.541727
    5       -9.089361
    6       -8.771880
    7       -7.742370
    8       -7.023560
    9        1.588471
   10        1.858528
   11        2.669352
   12        3.083443
 
  0.3750000E+00  0.1388889E+00  0.0000000E+00  0.4629630E-02
    1      -20.952459
    2      -19.586453
    3      -11.882523
    4       -9.375691
    5       -9.146402
    6       -8.898683
    7       -8.010618
    8       -7.340958
    9        2.083162
   10        2.092469
   11        2.895285
   12        3.314060
 
  0.4166667E+00  0.1388889E+00  0.0000000E+00  0.4629630E-02
    1      -20.770144
    2      -19.858310
    3      -11.392567
    4       -9.551037
    5       -9.190923
    6       -8.686990
    7       -8.274923
    8       -7.644720
    9        2.334097
   10        2.595736
   11        3.146898
   12        3.571801
 
  0.4583333E+00  0.1388889E+00  0.0000000E+00  0.4629630E-02
    1      -20.569296
    2      -20.113042
    3      -10.909199
    4       -9.982948
    5       -8.987702
    6       -8.528225
    7       -8.454883
    8       -7.932650
    9        2.611240
   10        3.092245
   11        3.243664
   12        3.421580
 
  0.5000000E+00  0.1388889E+00  0.0000000E+00  0.2314815E-02
    1      -20.350162
    2      -20.350162
    3      -10.437495
    4      -10.437495
    5       -8.766490
    6       -8.766490
    7       -8.203117
    8       -8.203117
    9        2.914475
   10        2.914475
   11        3.556938
   12        3.556938
 
  0.0000000E+00  0.1666667E+00  0.0000000E+00  0.2314815E-02
    1      -21.583971
    2      -16.825827
    3      -15.426182
    4      -10.667350
    5       -9.638272
    6       -7.470138
    7       -6.904102
    8       -4.736984
    9       -1.357932
   10        1.219160
   11        2.023332
   12        2.426225
 
  0.4166667E-01  0.1666667E+00  0.0000000E+00  0.4629630E-02
    1      -21.574270
    2      -16.940348
    3      -15.298730
    4      -10.656976
    5       -9.626852
    6       -7.514841
    7       -6.905181
    8       -4.801083
    9       -1.282313
   10        1.232331
   11        2.036681
   12        2.439779
 
  0.8333333E-01  0.1666667E+00  0.0000000E+00  0.4629630E-02
    1      -21.545173
    2      -17.206540
    3      -14.993909
    4      -10.625842
    5       -9.592609
    6       -7.636499
    7       -6.920321
    8       -4.977738
    9       -1.071260
   10        1.271852
   11        2.076725
   12        2.480443
 
  0.1250000E+00  0.1666667E+00  0.0000000E+00  0.4629630E-02
    1      -21.496704
    2      -17.529523
    3      -14.607096
    4      -10.573900
    5       -9.535604
    6       -7.812857
    7       -6.969957
    8       -5.233137
    9       -0.759068
   10        1.337751
   11        2.143448
   12        2.548222
 
  0.1666667E+00  0.1666667E+00  0.0000000E+00  0.4629630E-02
    1      -21.428902
    2      -17.867692
    3      -14.180757
    4      -10.501062
    5       -9.455933
    6       -8.027110
    7       -7.067348
    8       -5.535181
    9       -0.378634
   10        1.430066
   11        2.236830
   12        2.643125
 
  0.2083333E+00  0.1666667E+00  0.0000000E+00  0.4629630E-02
    1      -21.341825
    2      -18.204775
    3      -13.732432
    4      -10.407173
    5       -9.353741
    6       -8.268826
    7       -7.217239
    8       -5.860942
    9        0.046026
   10        1.548834
   11        2.356835
   12        2.765163
 
  0.2500000E+00  0.1666667E+00  0.0000000E+00  0.4629630E-02
    1      -21.235548
    2      -18.533567
    3      -13.271077
    4      -10.291983
    5       -9.229218
    6       -8.531885
    7       -7.417850
    8       -6.195585
    9        0.498722
   10        1.694079
   11        2.503416
   12        2.914344
 
  0.2916667E+00  0.1666667E+00  0.0000000E+00  0.4629630E-02
    1      -21.110166
    2      -18.850387
    3      -12.802686
    4      -10.155099
    5       -9.082609
    6       -8.813295
    7       -7.662426
    8       -6.529654
    9        0.968401
   10        1.865799
   11        2.676511
   12        3.090673
 
  0.3333333E+00  0.1666667E+00  0.0000000E+00  0.4629630E-02
    1      -20.965794
    2      -19.153118
    3      -12.332377
    4       -9.995938
    5       -9.112708
    6       -8.914221
    7       -7.940425
    8       -6.856986
    9        1.447108
   10        2.063961
   11        2.876032
   12        3.294150
 
  0.3750000E+00  0.1666667E+00  0.0000000E+00  0.4629630E-02
    1      -20.802577
    2      -19.440421
    3      -11.865298
    4       -9.813690
    5       -9.432056
    6       -8.724441
    7       -8.238692
    8       -7.173426
    9        1.928728
   10        2.288502
   11        3.101853
   12        3.524766
 
  0.4166667E+00  0.1666667E+00  0.0000000E+00  0.4629630E-02
    1      -20.620690
    2      -19.711381
    3      -11.407029
    4       -9.774744
    5       -9.607353
    6       -8.542957
    7       -8.513741
    8       -7.476068
    9        2.408261
   10        2.539336
   11        3.353729
   12        3.782512
 
  0.4583333E+00  0.1666667E+00  0.0000000E+00  0.4629630E-02
    1      -20.420341
    2      -19.965336
    3      -10.963608
    4      -10.144030
    5       -9.376004
    6       -8.839926
    7       -8.282712
    8       -7.762812
    9        2.816355
   10        2.881371
   11        3.448411
   12        3.629312
 
  0.5000000E+00  0.1666667E+00  0.0000000E+00  0.2314815E-02
    1      -20.201787
    2      -20.201787
    3      -10.541021
    4      -10.541021
    5       -9.119521
    6       -9.119521
    7       -8.032092
    8       -8.032092
    9        3.119432
   10        3.119432
   11        3.343917
   12        3.343917
 