 running on    8 total cores
 distrk:  each k-point on    8 cores,    1 groups
 distr:  one band on    2 cores,    4 groups
 using from now: INCAR     
 vasp.5.3.5 31Mar14 (build Mar 02 2015 18:14:16) complex                        
  
 POSCAR found type information on POSCAR  C 
 POSCAR found :  1 types and       4 ions
 LDA part: xc-table for Pade appr. of Perdew
 POSCAR, INCAR and KPOINTS ok, starting setup
 FFT: planning ...
 WAVECAR not read
 entering main loop
       N       E                     dE             d eps       ncg     rms          rms(c)
DAV:   1     0.187384289042E+03    0.18738E+03   -0.10617E+04  5928   0.275E+03
DAV:   2    -0.948657917740E+01   -0.19687E+03   -0.17468E+03 10448   0.260E+02
DAV:   3    -0.380897625366E+02   -0.28603E+02   -0.28044E+02  7392   0.118E+02    0.709E+00
RMM:   4    -0.375723941281E+02    0.51737E+00   -0.95324E+00  5928   0.264E+01    0.411E+00
RMM:   5    -0.368673144795E+02    0.70508E+00   -0.26438E+00  5933   0.111E+01    0.695E-01
RMM:   6    -0.368692909233E+02   -0.19764E-02   -0.82092E-02  6385   0.202E+00    0.498E-01
RMM:   7    -0.368604228843E+02    0.88680E-02   -0.30848E-02  5940   0.153E+00    0.325E-01
RMM:   8    -0.368555742828E+02    0.48486E-02   -0.62399E-03  5928   0.525E-01    0.136E-01
RMM:   9    -0.368553458146E+02    0.22847E-03   -0.19604E-02  5928   0.828E-01    0.150E-01
RMM:  10    -0.368552412192E+02    0.10460E-03   -0.20065E-03  5928   0.325E-01    0.265E-02
RMM:  11    -0.368575370816E+02   -0.22959E-02   -0.71440E-04  5929   0.180E-01    0.419E-02
RMM:  12    -0.368580337190E+02   -0.49664E-03   -0.19488E-04  5955   0.925E-02    0.532E-03
RMM:  13    -0.368582872351E+02   -0.25352E-03   -0.46167E-05  6036   0.353E-02    0.267E-03
RMM:  14    -0.368583700419E+02   -0.82807E-04   -0.99988E-06  5990   0.137E-02    0.832E-04
RMM:  15    -0.368583833889E+02   -0.13347E-04   -0.18338E-06  5955   0.732E-03    0.229E-03
RMM:  16    -0.368583965090E+02   -0.13120E-04   -0.20886E-06  5928   0.955E-03    0.144E-03
RMM:  17    -0.368584024823E+02   -0.59733E-05   -0.22010E-07  5928   0.287E-03    0.518E-04
RMM:  18    -0.368584035246E+02   -0.10424E-05   -0.30559E-08  5996   0.143E-03    0.860E-05
WARNING in EDDRMM: call to ZHEGV failed, returncode =   6  3  1
WARNING in EDDRMM: call to ZHEGV failed, returncode =   6  3  1
WARNING in EDDRMM: call to ZHEGV failed, returncode =   6  3  1
RMM:  19    -0.368584042786E+02   -0.75396E-06   -0.99622E-09  5455   0.436E-04    0.139E-05
RMM:  20    -0.368584043169E+02   -0.38263E-07   -0.66588E-10  4480   0.136E-04    0.230E-05
RMM:  21    -0.368584043297E+02   -0.12819E-07   -0.18861E-10  4310   0.825E-05    0.845E-06
RMM:  22    -0.368584043299E+02   -0.21362E-09   -0.20643E-11  3907   0.505E-05    0.710E-07
RMM:  23    -0.368584043300E+02   -0.10687E-09   -0.19742E-11  3619   0.393E-05    0.174E-06
RMM:  24    -0.368584043303E+02   -0.31469E-09   -0.55019E-12  3109   0.294E-05    0.461E-07
RMM:  25    -0.368584043303E+02    0.72760E-11   -0.36277E-12  2816   0.245E-05
   1 F= -.36858404E+02 E0= -.36858404E+02  d E =-.368584E+02
 BRION: g(F)=  0.926E-07 g(S)=  0.000E+00
 bond charge predicted
       N       E                     dE             d eps       ncg     rms          rms(c)
DAV:   1    -0.368584042022E+02    0.12816E-06   -0.12309E-05  6316   0.328E-02    0.657E-04
RMM:   2    -0.368584042147E+02   -0.12555E-07   -0.19711E-07  5959   0.391E-03    0.477E-04
RMM:   3    -0.368584042137E+02    0.10173E-08   -0.33249E-08  5966   0.146E-03    0.128E-04
WARNING in EDDRMM: call to ZHEGV failed, returncode =   6  3  1
RMM:   4    -0.368584042123E+02    0.13684E-08   -0.22901E-09  6034   0.380E-04    0.367E-05
RMM:   5    -0.368584042130E+02   -0.67359E-09   -0.14537E-10  3979   0.933E-05    0.150E-05
RMM:   6    -0.368584042127E+02    0.29445E-09   -0.22762E-11  3676   0.543E-05    0.278E-06
RMM:   7    -0.368584042127E+02    0.48090E-10   -0.11955E-11  3662   0.447E-05
   2 F= -.36858404E+02 E0= -.36858404E+02  d E =0.117653E-06
 BRION: g(F)=  0.126E-05 g(S)=  0.000E+00 retain N=  1 mean eig= 0.21
 eig:   0.213
 bond charge predicted
       N       E                     dE             d eps       ncg     rms          rms(c)
DAV:   1    -0.368584043460E+02   -0.13324E-06   -0.76092E-06  6828   0.258E-02    0.520E-04
RMM:   2    -0.368584043482E+02   -0.22559E-08   -0.11812E-07  5959   0.307E-03    0.375E-04
RMM:   3    -0.368584043418E+02    0.64450E-08   -0.20338E-08  5965   0.115E-03    0.977E-05
RMM:   4    -0.368584043421E+02   -0.28751E-09   -0.13513E-09  5956   0.295E-04    0.287E-05
RMM:   5    -0.368584043416E+02    0.47135E-09   -0.77298E-11  3838   0.756E-05    0.115E-05
RMM:   6    -0.368584043416E+02    0.16144E-10   -0.14871E-11  3481   0.486E-05
   3 F= -.36858404E+02 E0= -.36858404E+02  d E =-.128903E-06
 BRION: g(F)=  0.318E-11 g(S)=  0.000E+00 retain N=  1 mean eig= 0.21
 eig:   0.214
 bond charge predicted
       N       E                     dE             d eps       ncg     rms          rms(c)
DAV:   1    -0.368584043412E+02    0.38858E-09    0.53441E-09  4760   0.536E-05    0.940E-07
RMM:   2    -0.368584043418E+02   -0.62096E-09   -0.29380E-13  2096   0.197E-05    0.591E-07
RMM:   3    -0.368584043415E+02    0.33128E-09   -0.16789E-12  1960   0.196E-05    0.823E-08
RMM:   4    -0.368584043416E+02   -0.11141E-09   -0.58906E-13  1852   0.185E-05    0.505E-08
RMM:   5    -0.368584043416E+02    0.17280E-10    0.42306E-13  1763   0.176E-05
   4 F= -.36858404E+02 E0= -.36858404E+02  d E =-.113687E-10
 BRION: g(F)=  0.523E-11 g(S)=  0.000E+00 retain N=  1 mean eig= 0.09
 eig:   0.094
 bond charge predicted
       N       E                     dE             d eps       ncg     rms          rms(c)
DAV:   1    -0.368584043411E+02    0.50306E-09    0.53690E-09  4592   0.260E-05    0.241E-07
RMM:   2    -0.368584043414E+02   -0.31434E-09    0.42633E-13  1353   0.903E-06    0.148E-07
RMM:   3    -0.368584043414E+02    0.20350E-10   -0.59089E-14  1334   0.900E-06    0.147E-08
RMM:   4    -0.368584043415E+02   -0.93337E-10   -0.59253E-14  1333   0.888E-06    0.604E-09
RMM:   5    -0.368584043418E+02   -0.28490E-09    0.12833E-13  1321   0.881E-06    0.435E-09
RMM:   6    -0.368584043417E+02    0.11210E-09   -0.53661E-14  1305   0.882E-06    0.206E-09
RMM:   7    -0.368584043415E+02    0.12028E-09   -0.33060E-14  1306   0.881E-06    0.447E-09
RMM:   8    -0.368584043415E+02   -0.54570E-11   -0.31769E-13  1043   0.872E-06
   5 F= -.36858404E+02 E0= -.36858404E+02  d E =0.404725E-10
 BRION: g(F)=  0.198E-13 g(S)=  0.000E+00 retain N=  1 mean eig= 0.09
 eig:   0.088
 reached required accuracy - stopping structural energy minimisation
