<?xml version="1.0" encoding="ISO-8859-1"?>
<modeling>
 <generator>
  <i name="program" type="string">vasp </i>
  <i name="version" type="string">5.3.5  </i>
  <i name="subversion" type="string">31Mar14 (build Mar 02 2015 18:14:16) complex                          parallel </i>
  <i name="platform" type="string">LinuxIFC </i>
  <i name="date" type="string">2018 08 09 </i>
  <i name="time" type="string">14:11:07 </i>
 </generator>
 <incar>
  <i type="string" name="SYSTEM">  gr</i>
  <i type="string" name="PREC">accurate : accuracy</i>
  <i type="string" name="ALGO"> FAST.</i>
  <i type="int" name="NELM">   100</i>
  <i type="int" name="NELMDL">    -3</i>
  <i type="int" name="NELMIN">     5</i>
  <i type="int" name="IBRION">     1</i>
  <i name="EDIFF">      0.00000000</i>
  <i name="EDIFFG">     -0.00000100</i>
  <i type="int" name="NSW">   400</i>
  <i type="int" name="ISIF">     2</i>
  <i name="ENCUT">   2000.00000000</i>
  <i type="int" name="ISMEAR">     0</i>
  <i name="SIGMA">      0.05000000</i>
  <i type="int" name="NWRITE">     2</i>
  <i type="logical" name="LWAVE"> F  </i>
  <i type="logical" name="LCHARG"> F  </i>
  <i type="int" name="NELM">   100</i>
 </incar>
 <kpoints>
  <generation param="Gamma">
   <v type="int" name="divisions">      24       36        1 </v>
   <v name="usershift">      0.00000000       0.00000000       0.00000000 </v>
   <v name="genvec1">      0.04166667       0.00000000       0.00000000 </v>
   <v name="genvec2">      0.00000000       0.02777778       0.00000000 </v>
   <v name="genvec3">      0.00000000       0.00000000       1.00000000 </v>
   <v name="shift">      0.00000000       0.00000000       0.00000000 </v>
  </generation>
  <varray name="kpointlist" >
   <v>       0.00000000       0.00000000       0.00000000 </v>
   <v>       0.04166667       0.00000000       0.00000000 </v>
   <v>       0.08333333       0.00000000       0.00000000 </v>
   <v>       0.12500000       0.00000000       0.00000000 </v>
   <v>       0.16666667       0.00000000       0.00000000 </v>
   <v>       0.20833333       0.00000000       0.00000000 </v>
   <v>       0.25000000       0.00000000       0.00000000 </v>
   <v>       0.29166667       0.00000000       0.00000000 </v>
   <v>       0.33333333       0.00000000       0.00000000 </v>
   <v>       0.37500000       0.00000000       0.00000000 </v>
   <v>       0.41666667       0.00000000       0.00000000 </v>
   <v>       0.45833333       0.00000000       0.00000000 </v>
   <v>       0.50000000       0.00000000       0.00000000 </v>
   <v>       0.00000000       0.02777778       0.00000000 </v>
   <v>       0.04166667       0.02777778       0.00000000 </v>
   <v>       0.08333333       0.02777778       0.00000000 </v>
   <v>       0.12500000       0.02777778       0.00000000 </v>
   <v>       0.16666667       0.02777778       0.00000000 </v>
   <v>       0.20833333       0.02777778       0.00000000 </v>
   <v>       0.25000000       0.02777778       0.00000000 </v>
   <v>       0.29166667       0.02777778       0.00000000 </v>
   <v>       0.33333333       0.02777778       0.00000000 </v>
   <v>       0.37500000       0.02777778       0.00000000 </v>
   <v>       0.41666667       0.02777778       0.00000000 </v>
   <v>       0.45833333       0.02777778       0.00000000 </v>
   <v>       0.50000000       0.02777778       0.00000000 </v>
   <v>       0.00000000       0.05555556       0.00000000 </v>
   <v>       0.04166667       0.05555556       0.00000000 </v>
   <v>       0.08333333       0.05555556       0.00000000 </v>
   <v>       0.12500000       0.05555556       0.00000000 </v>
   <v>       0.16666667       0.05555556       0.00000000 </v>
   <v>       0.20833333       0.05555556       0.00000000 </v>
   <v>       0.25000000       0.05555556       0.00000000 </v>
   <v>       0.29166667       0.05555556       0.00000000 </v>
   <v>       0.33333333       0.05555556       0.00000000 </v>
   <v>       0.37500000       0.05555556       0.00000000 </v>
   <v>       0.41666667       0.05555556       0.00000000 </v>
   <v>       0.45833333       0.05555556       0.00000000 </v>
   <v>       0.50000000       0.05555556       0.00000000 </v>
   <v>       0.00000000       0.08333333       0.00000000 </v>
   <v>       0.04166667       0.08333333       0.00000000 </v>
   <v>       0.08333333       0.08333333       0.00000000 </v>
   <v>       0.12500000       0.08333333       0.00000000 </v>
   <v>       0.16666667       0.08333333       0.00000000 </v>
   <v>       0.20833333       0.08333333       0.00000000 </v>
   <v>       0.25000000       0.08333333       0.00000000 </v>
   <v>       0.29166667       0.08333333       0.00000000 </v>
   <v>       0.33333333       0.08333333       0.00000000 </v>
   <v>       0.37500000       0.08333333       0.00000000 </v>
   <v>       0.41666667       0.08333333       0.00000000 </v>
   <v>       0.45833333       0.08333333       0.00000000 </v>
   <v>       0.50000000       0.08333333       0.00000000 </v>
   <v>       0.00000000       0.11111111       0.00000000 </v>
   <v>       0.04166667       0.11111111       0.00000000 </v>
   <v>       0.08333333       0.11111111       0.00000000 </v>
   <v>       0.12500000       0.11111111       0.00000000 </v>
   <v>       0.16666667       0.11111111       0.00000000 </v>
   <v>       0.20833333       0.11111111       0.00000000 </v>
   <v>       0.25000000       0.11111111       0.00000000 </v>
   <v>       0.29166667       0.11111111       0.00000000 </v>
   <v>       0.33333333       0.11111111       0.00000000 </v>
   <v>       0.37500000       0.11111111       0.00000000 </v>
   <v>       0.41666667       0.11111111       0.00000000 </v>
   <v>       0.45833333       0.11111111       0.00000000 </v>
   <v>       0.50000000       0.11111111       0.00000000 </v>
   <v>       0.00000000       0.13888889       0.00000000 </v>
   <v>       0.04166667       0.13888889       0.00000000 </v>
   <v>       0.08333333       0.13888889       0.00000000 </v>
   <v>       0.12500000       0.13888889       0.00000000 </v>
   <v>       0.16666667       0.13888889       0.00000000 </v>
   <v>       0.20833333       0.13888889       0.00000000 </v>
   <v>       0.25000000       0.13888889       0.00000000 </v>
   <v>       0.29166667       0.13888889       0.00000000 </v>
   <v>       0.33333333       0.13888889       0.00000000 </v>
   <v>       0.37500000       0.13888889       0.00000000 </v>
   <v>       0.41666667       0.13888889       0.00000000 </v>
   <v>       0.45833333       0.13888889       0.00000000 </v>
   <v>       0.50000000       0.13888889       0.00000000 </v>
   <v>       0.00000000       0.16666667       0.00000000 </v>
   <v>       0.04166667       0.16666667       0.00000000 </v>
   <v>       0.08333333       0.16666667       0.00000000 </v>
   <v>       0.12500000       0.16666667       0.00000000 </v>
   <v>       0.16666667       0.16666667       0.00000000 </v>
   <v>       0.20833333       0.16666667       0.00000000 </v>
   <v>       0.25000000       0.16666667       0.00000000 </v>
   <v>       0.29166667       0.16666667       0.00000000 </v>
   <v>       0.33333333       0.16666667       0.00000000 </v>
   <v>       0.37500000       0.16666667       0.00000000 </v>
   <v>       0.41666667       0.16666667       0.00000000 </v>
   <v>       0.45833333       0.16666667       0.00000000 </v>
   <v>       0.50000000       0.16666667       0.00000000 </v>
   <v>       0.00000000       0.19444444       0.00000000 </v>
   <v>       0.04166667       0.19444444       0.00000000 </v>
   <v>       0.08333333       0.19444444       0.00000000 </v>
   <v>       0.12500000       0.19444444       0.00000000 </v>
   <v>       0.16666667       0.19444444       0.00000000 </v>
   <v>       0.20833333       0.19444444       0.00000000 </v>
   <v>       0.25000000       0.19444444       0.00000000 </v>
   <v>       0.29166667       0.19444444       0.00000000 </v>
   <v>       0.33333333       0.19444444       0.00000000 </v>
   <v>       0.37500000       0.19444444       0.00000000 </v>
   <v>       0.41666667       0.19444444       0.00000000 </v>
   <v>       0.45833333       0.19444444       0.00000000 </v>
   <v>       0.50000000       0.19444444       0.00000000 </v>
   <v>       0.00000000       0.22222222       0.00000000 </v>
   <v>       0.04166667       0.22222222       0.00000000 </v>
   <v>       0.08333333       0.22222222       0.00000000 </v>
   <v>       0.12500000       0.22222222       0.00000000 </v>
   <v>       0.16666667       0.22222222       0.00000000 </v>
   <v>       0.20833333       0.22222222       0.00000000 </v>
   <v>       0.25000000       0.22222222       0.00000000 </v>
   <v>       0.29166667       0.22222222       0.00000000 </v>
   <v>       0.33333333       0.22222222       0.00000000 </v>
   <v>       0.37500000       0.22222222       0.00000000 </v>
   <v>       0.41666667       0.22222222       0.00000000 </v>
   <v>       0.45833333       0.22222222       0.00000000 </v>
   <v>       0.50000000       0.22222222       0.00000000 </v>
   <v>       0.00000000       0.25000000       0.00000000 </v>
   <v>       0.04166667       0.25000000       0.00000000 </v>
   <v>       0.08333333       0.25000000       0.00000000 </v>
   <v>       0.12500000       0.25000000       0.00000000 </v>
   <v>       0.16666667       0.25000000       0.00000000 </v>
   <v>       0.20833333       0.25000000       0.00000000 </v>
   <v>       0.25000000       0.25000000       0.00000000 </v>
   <v>       0.29166667       0.25000000       0.00000000 </v>
   <v>       0.33333333       0.25000000       0.00000000 </v>
   <v>       0.37500000       0.25000000       0.00000000 </v>
   <v>       0.41666667       0.25000000       0.00000000 </v>
   <v>       0.45833333       0.25000000       0.00000000 </v>
   <v>       0.50000000       0.25000000       0.00000000 </v>
   <v>       0.00000000       0.27777778       0.00000000 </v>
   <v>       0.04166667       0.27777778       0.00000000 </v>
   <v>       0.08333333       0.27777778       0.00000000 </v>
   <v>       0.12500000       0.27777778       0.00000000 </v>
   <v>       0.16666667       0.27777778       0.00000000 </v>
   <v>       0.20833333       0.27777778       0.00000000 </v>
   <v>       0.25000000       0.27777778       0.00000000 </v>
   <v>       0.29166667       0.27777778       0.00000000 </v>
   <v>       0.33333333       0.27777778       0.00000000 </v>
   <v>       0.37500000       0.27777778       0.00000000 </v>
   <v>       0.41666667       0.27777778       0.00000000 </v>
   <v>       0.45833333       0.27777778       0.00000000 </v>
   <v>       0.50000000       0.27777778       0.00000000 </v>
   <v>       0.00000000       0.30555556       0.00000000 </v>
   <v>       0.04166667       0.30555556       0.00000000 </v>
   <v>       0.08333333       0.30555556       0.00000000 </v>
   <v>       0.12500000       0.30555556       0.00000000 </v>
   <v>       0.16666667       0.30555556       0.00000000 </v>
   <v>       0.20833333       0.30555556       0.00000000 </v>
   <v>       0.25000000       0.30555556       0.00000000 </v>
   <v>       0.29166667       0.30555556       0.00000000 </v>
   <v>       0.33333333       0.30555556       0.00000000 </v>
   <v>       0.37500000       0.30555556       0.00000000 </v>
   <v>       0.41666667       0.30555556       0.00000000 </v>
   <v>       0.45833333       0.30555556       0.00000000 </v>
   <v>       0.50000000       0.30555556       0.00000000 </v>
   <v>       0.00000000       0.33333333       0.00000000 </v>
   <v>       0.04166667       0.33333333       0.00000000 </v>
   <v>       0.08333333       0.33333333       0.00000000 </v>
   <v>       0.12500000       0.33333333       0.00000000 </v>
   <v>       0.16666667       0.33333333       0.00000000 </v>
   <v>       0.20833333       0.33333333       0.00000000 </v>
   <v>       0.25000000       0.33333333       0.00000000 </v>
   <v>       0.29166667       0.33333333       0.00000000 </v>
   <v>       0.33333333       0.33333333       0.00000000 </v>
   <v>       0.37500000       0.33333333       0.00000000 </v>
   <v>       0.41666667       0.33333333       0.00000000 </v>
   <v>       0.45833333       0.33333333       0.00000000 </v>
   <v>       0.50000000       0.33333333       0.00000000 </v>
   <v>       0.00000000       0.36111111       0.00000000 </v>
   <v>       0.04166667       0.36111111       0.00000000 </v>
   <v>       0.08333333       0.36111111       0.00000000 </v>
   <v>       0.12500000       0.36111111       0.00000000 </v>
   <v>       0.16666667       0.36111111       0.00000000 </v>
   <v>       0.20833333       0.36111111       0.00000000 </v>
   <v>       0.25000000       0.36111111       0.00000000 </v>
   <v>       0.29166667       0.36111111       0.00000000 </v>
   <v>       0.33333333       0.36111111       0.00000000 </v>
   <v>       0.37500000       0.36111111       0.00000000 </v>
   <v>       0.41666667       0.36111111       0.00000000 </v>
   <v>       0.45833333       0.36111111       0.00000000 </v>
   <v>       0.50000000       0.36111111       0.00000000 </v>
   <v>       0.00000000       0.38888889       0.00000000 </v>
   <v>       0.04166667       0.38888889       0.00000000 </v>
   <v>       0.08333333       0.38888889       0.00000000 </v>
   <v>       0.12500000       0.38888889       0.00000000 </v>
   <v>       0.16666667       0.38888889       0.00000000 </v>
   <v>       0.20833333       0.38888889       0.00000000 </v>
   <v>       0.25000000       0.38888889       0.00000000 </v>
   <v>       0.29166667       0.38888889       0.00000000 </v>
   <v>       0.33333333       0.38888889       0.00000000 </v>
   <v>       0.37500000       0.38888889       0.00000000 </v>
   <v>       0.41666667       0.38888889       0.00000000 </v>
   <v>       0.45833333       0.38888889       0.00000000 </v>
   <v>       0.50000000       0.38888889       0.00000000 </v>
   <v>       0.00000000       0.41666667       0.00000000 </v>
   <v>       0.04166667       0.41666667       0.00000000 </v>
   <v>       0.08333333       0.41666667       0.00000000 </v>
   <v>       0.12500000       0.41666667       0.00000000 </v>
   <v>       0.16666667       0.41666667       0.00000000 </v>
   <v>       0.20833333       0.41666667       0.00000000 </v>
   <v>       0.25000000       0.41666667       0.00000000 </v>
   <v>       0.29166667       0.41666667       0.00000000 </v>
   <v>       0.33333333       0.41666667       0.00000000 </v>
   <v>       0.37500000       0.41666667       0.00000000 </v>
   <v>       0.41666667       0.41666667       0.00000000 </v>
   <v>       0.45833333       0.41666667       0.00000000 </v>
   <v>       0.50000000       0.41666667       0.00000000 </v>
   <v>       0.00000000       0.44444444       0.00000000 </v>
   <v>       0.04166667       0.44444444       0.00000000 </v>
   <v>       0.08333333       0.44444444       0.00000000 </v>
   <v>       0.12500000       0.44444444       0.00000000 </v>
   <v>       0.16666667       0.44444444       0.00000000 </v>
   <v>       0.20833333       0.44444444       0.00000000 </v>
   <v>       0.25000000       0.44444444       0.00000000 </v>
   <v>       0.29166667       0.44444444       0.00000000 </v>
   <v>       0.33333333       0.44444444       0.00000000 </v>
   <v>       0.37500000       0.44444444       0.00000000 </v>
   <v>       0.41666667       0.44444444       0.00000000 </v>
   <v>       0.45833333       0.44444444       0.00000000 </v>
   <v>       0.50000000       0.44444444       0.00000000 </v>
   <v>       0.00000000       0.47222222       0.00000000 </v>
   <v>       0.04166667       0.47222222       0.00000000 </v>
   <v>       0.08333333       0.47222222       0.00000000 </v>
   <v>       0.12500000       0.47222222       0.00000000 </v>
   <v>       0.16666667       0.47222222       0.00000000 </v>
   <v>       0.20833333       0.47222222       0.00000000 </v>
   <v>       0.25000000       0.47222222       0.00000000 </v>
   <v>       0.29166667       0.47222222       0.00000000 </v>
   <v>       0.33333333       0.47222222       0.00000000 </v>
   <v>       0.37500000       0.47222222       0.00000000 </v>
   <v>       0.41666667       0.47222222       0.00000000 </v>
   <v>       0.45833333       0.47222222       0.00000000 </v>
   <v>       0.50000000       0.47222222       0.00000000 </v>
   <v>       0.00000000       0.50000000       0.00000000 </v>
   <v>       0.04166667       0.50000000       0.00000000 </v>
   <v>       0.08333333       0.50000000       0.00000000 </v>
   <v>       0.12500000       0.50000000       0.00000000 </v>
   <v>       0.16666667       0.50000000       0.00000000 </v>
   <v>       0.20833333       0.50000000       0.00000000 </v>
   <v>       0.25000000       0.50000000       0.00000000 </v>
   <v>       0.29166667       0.50000000       0.00000000 </v>
   <v>       0.33333333       0.50000000       0.00000000 </v>
   <v>       0.37500000       0.50000000       0.00000000 </v>
   <v>       0.41666667       0.50000000       0.00000000 </v>
   <v>       0.45833333       0.50000000       0.00000000 </v>
   <v>       0.50000000       0.50000000       0.00000000 </v>
  </varray>
  <varray name="weights" >
   <v>       0.00115741 </v>
   <v>       0.00231481 </v>
   <v>       0.00231481 </v>
   <v>       0.00231481 </v>
   <v>       0.00231481 </v>
   <v>       0.00231481 </v>
   <v>       0.00231481 </v>
   <v>       0.00231481 </v>
   <v>       0.00231481 </v>
   <v>       0.00231481 </v>
   <v>       0.00231481 </v>
   <v>       0.00231481 </v>
   <v>       0.00115741 </v>
   <v>       0.00231481 </v>
   <v>       0.00462963 </v>
   <v>       0.00462963 </v>
   <v>       0.00462963 </v>
   <v>       0.00462963 </v>
   <v>       0.00462963 </v>
   <v>       0.00462963 </v>
   <v>       0.00462963 </v>
   <v>       0.00462963 </v>
   <v>       0.00462963 </v>
   <v>       0.00462963 </v>
   <v>       0.00462963 </v>
   <v>       0.00231481 </v>
   <v>       0.00231481 </v>
   <v>       0.00462963 </v>
   <v>       0.00462963 </v>
   <v>       0.00462963 </v>
   <v>       0.00462963 </v>
   <v>       0.00462963 </v>
   <v>       0.00462963 </v>
   <v>       0.00462963 </v>
   <v>       0.00462963 </v>
   <v>       0.00462963 </v>
   <v>       0.00462963 </v>
   <v>       0.00462963 </v>
   <v>       0.00231481 </v>
   <v>       0.00231481 </v>
   <v>       0.00462963 </v>
   <v>       0.00462963 </v>
   <v>       0.00462963 </v>
   <v>       0.00462963 </v>
   <v>       0.00462963 </v>
   <v>       0.00462963 </v>
   <v>       0.00462963 </v>
   <v>       0.00462963 </v>
   <v>       0.00462963 </v>
   <v>       0.00462963 </v>
   <v>       0.00462963 </v>
   <v>       0.00231481 </v>
   <v>       0.00231481 </v>
   <v>       0.00462963 </v>
   <v>       0.00462963 </v>
   <v>       0.00462963 </v>
   <v>       0.00462963 </v>
   <v>       0.00462963 </v>
   <v>       0.00462963 </v>
   <v>       0.00462963 </v>
   <v>       0.00462963 </v>
   <v>       0.00462963 </v>
   <v>       0.00462963 </v>
   <v>       0.00462963 </v>
   <v>       0.00231481 </v>
   <v>       0.00231481 </v>
   <v>       0.00462963 </v>
   <v>       0.00462963 </v>
   <v>       0.00462963 </v>
   <v>       0.00462963 </v>
   <v>       0.00462963 </v>
   <v>       0.00462963 </v>
   <v>       0.00462963 </v>
   <v>       0.00462963 </v>
   <v>       0.00462963 </v>
   <v>       0.00462963 </v>
   <v>       0.00462963 </v>
   <v>       0.00231481 </v>
   <v>       0.00231481 </v>
   <v>       0.00462963 </v>
   <v>       0.00462963 </v>
   <v>       0.00462963 </v>
   <v>       0.00462963 </v>
   <v>       0.00462963 </v>
   <v>       0.00462963 </v>
   <v>       0.00462963 </v>
   <v>       0.00462963 </v>
   <v>       0.00462963 </v>
   <v>       0.00462963 </v>
   <v>       0.00462963 </v>
   <v>       0.00231481 </v>
   <v>       0.00231481 </v>
   <v>       0.00462963 </v>
   <v>       0.00462963 </v>
   <v>       0.00462963 </v>
   <v>       0.00462963 </v>
   <v>       0.00462963 </v>
   <v>       0.00462963 </v>
   <v>       0.00462963 </v>
   <v>       0.00462963 </v>
   <v>       0.00462963 </v>
   <v>       0.00462963 </v>
   <v>       0.00462963 </v>
   <v>       0.00231481 </v>
   <v>       0.00231481 </v>
   <v>       0.00462963 </v>
   <v>       0.00462963 </v>
   <v>       0.00462963 </v>
   <v>       0.00462963 </v>
   <v>       0.00462963 </v>
   <v>       0.00462963 </v>
   <v>       0.00462963 </v>
   <v>       0.00462963 </v>
   <v>       0.00462963 </v>
   <v>       0.00462963 </v>
   <v>       0.00462963 </v>
   <v>       0.00231481 </v>
   <v>       0.00231481 </v>
   <v>       0.00462963 </v>
   <v>       0.00462963 </v>
   <v>       0.00462963 </v>
   <v>       0.00462963 </v>
   <v>       0.00462963 </v>
   <v>       0.00462963 </v>
   <v>       0.00462963 </v>
   <v>       0.00462963 </v>
   <v>       0.00462963 </v>
   <v>       0.00462963 </v>
   <v>       0.00462963 </v>
   <v>       0.00231481 </v>
   <v>       0.00231481 </v>
   <v>       0.00462963 </v>
   <v>       0.00462963 </v>
   <v>       0.00462963 </v>
   <v>       0.00462963 </v>
   <v>       0.00462963 </v>
   <v>       0.00462963 </v>
   <v>       0.00462963 </v>
   <v>       0.00462963 </v>
   <v>       0.00462963 </v>
   <v>       0.00462963 </v>
   <v>       0.00462963 </v>
   <v>       0.00231481 </v>
   <v>       0.00231481 </v>
   <v>       0.00462963 </v>
   <v>       0.00462963 </v>
   <v>       0.00462963 </v>
   <v>       0.00462963 </v>
   <v>       0.00462963 </v>
   <v>       0.00462963 </v>
   <v>       0.00462963 </v>
   <v>       0.00462963 </v>
   <v>       0.00462963 </v>
   <v>       0.00462963 </v>
   <v>       0.00462963 </v>
   <v>       0.00231481 </v>
   <v>       0.00231481 </v>
   <v>       0.00462963 </v>
   <v>       0.00462963 </v>
   <v>       0.00462963 </v>
   <v>       0.00462963 </v>
   <v>       0.00462963 </v>
   <v>       0.00462963 </v>
   <v>       0.00462963 </v>
   <v>       0.00462963 </v>
   <v>       0.00462963 </v>
   <v>       0.00462963 </v>
   <v>       0.00462963 </v>
   <v>       0.00231481 </v>
   <v>       0.00231481 </v>
   <v>       0.00462963 </v>
   <v>       0.00462963 </v>
   <v>       0.00462963 </v>
   <v>       0.00462963 </v>
   <v>       0.00462963 </v>
   <v>       0.00462963 </v>
   <v>       0.00462963 </v>
   <v>       0.00462963 </v>
   <v>       0.00462963 </v>
   <v>       0.00462963 </v>
   <v>       0.00462963 </v>
   <v>       0.00231481 </v>
   <v>       0.00231481 </v>
   <v>       0.00462963 </v>
   <v>       0.00462963 </v>
   <v>       0.00462963 </v>
   <v>       0.00462963 </v>
   <v>       0.00462963 </v>
   <v>       0.00462963 </v>
   <v>       0.00462963 </v>
   <v>       0.00462963 </v>
   <v>       0.00462963 </v>
   <v>       0.00462963 </v>
   <v>       0.00462963 </v>
   <v>       0.00231481 </v>
   <v>       0.00231481 </v>
   <v>       0.00462963 </v>
   <v>       0.00462963 </v>
   <v>       0.00462963 </v>
   <v>       0.00462963 </v>
   <v>       0.00462963 </v>
   <v>       0.00462963 </v>
   <v>       0.00462963 </v>
   <v>       0.00462963 </v>
   <v>       0.00462963 </v>
   <v>       0.00462963 </v>
   <v>       0.00462963 </v>
   <v>       0.00231481 </v>
   <v>       0.00231481 </v>
   <v>       0.00462963 </v>
   <v>       0.00462963 </v>
   <v>       0.00462963 </v>
   <v>       0.00462963 </v>
   <v>       0.00462963 </v>
   <v>       0.00462963 </v>
   <v>       0.00462963 </v>
   <v>       0.00462963 </v>
   <v>       0.00462963 </v>
   <v>       0.00462963 </v>
   <v>       0.00462963 </v>
   <v>       0.00231481 </v>
   <v>       0.00231481 </v>
   <v>       0.00462963 </v>
   <v>       0.00462963 </v>
   <v>       0.00462963 </v>
   <v>       0.00462963 </v>
   <v>       0.00462963 </v>
   <v>       0.00462963 </v>
   <v>       0.00462963 </v>
   <v>       0.00462963 </v>
   <v>       0.00462963 </v>
   <v>       0.00462963 </v>
   <v>       0.00462963 </v>
   <v>       0.00231481 </v>
   <v>       0.00115741 </v>
   <v>       0.00231481 </v>
   <v>       0.00231481 </v>
   <v>       0.00231481 </v>
   <v>       0.00231481 </v>
   <v>       0.00231481 </v>
   <v>       0.00231481 </v>
   <v>       0.00231481 </v>
   <v>       0.00231481 </v>
   <v>       0.00231481 </v>
   <v>       0.00231481 </v>
   <v>       0.00231481 </v>
   <v>       0.00115741 </v>
  </varray>
 </kpoints>
 <parameters>
  <separator name="general" >
   <i type="string" name="SYSTEM">gr</i>
   <i type="logical" name="LCOMPAT"> F  </i>
  </separator>
  <separator name="electronic" >
   <i type="string" name="PREC">accura</i>
   <i name="ENMAX">   2000.00000000</i>
   <i name="ENAUG">    644.87300000</i>
   <i name="EDIFF">      0.00000000</i>
   <i type="int" name="IALGO">    68</i>
   <i type="int" name="IWAVPR">    11</i>
   <i type="int" name="NBANDS">    12</i>
   <i name="NELECT">     16.00000000</i>
   <i type="int" name="TURBO">     0</i>
   <i type="int" name="IRESTART">     0</i>
   <i type="int" name="NREBOOT">     0</i>
   <i type="int" name="NMIN">     0</i>
   <i name="EREF">      0.00000000</i>
   <separator name="electronic smearing" >
    <i type="int" name="ISMEAR">     0</i>
    <i name="SIGMA">      0.05000000</i>
    <i name="KSPACING">      0.50000000</i>
    <i type="logical" name="KGAMMA"> T  </i>
   </separator>
   <separator name="electronic projectors" >
    <i type="logical" name="LREAL"> F  </i>
    <v name="ROPT">      0.00000000</v>
    <i type="int" name="LMAXPAW">  -100</i>
    <i type="int" name="LMAXMIX">     2</i>
    <i type="logical" name="NLSPLINE"> F  </i>
   </separator>
   <separator name="electronic startup" >
    <i type="int" name="ISTART">     0</i>
    <i type="int" name="ICHARG">     2</i>
    <i type="int" name="INIWAV">     1</i>
   </separator>
   <separator name="electronic spin" >
    <i type="int" name="ISPIN">     1</i>
    <i type="logical" name="LNONCOLLINEAR"> F  </i>
    <v name="MAGMOM">      1.00000000      1.00000000      1.00000000      1.00000000</v>
    <i name="NUPDOWN">     -1.00000000</i>
    <i type="logical" name="LSORBIT"> F  </i>
    <v name="SAXIS">      0.00000000      0.00000000      1.00000000</v>
    <i type="logical" name="LSPIRAL"> F  </i>
    <v name="QSPIRAL">      0.00000000      0.00000000      0.00000000</v>
    <i type="logical" name="LZEROZ"> F  </i>
   </separator>
   <separator name="electronic exchange-correlation" >
    <i type="logical" name="LASPH"> F  </i>
    <i type="logical" name="LMETAGGA"> F  </i>
   </separator>
   <separator name="electronic convergence" >
    <i type="int" name="NELM">   100</i>
    <i type="int" name="NELMDL">    -3</i>
    <i type="int" name="NELMIN">     5</i>
    <i name="ENINI">   2000.00000000</i>
    <separator name="electronic convergence detail" >
     <i type="logical" name="LDIAG"> T  </i>
     <i type="logical" name="LSUBROT"> F  </i>
     <i name="WEIMIN">      0.00100000</i>
     <i name="EBREAK">      0.00000000</i>
     <i name="DEPER">      0.30000000</i>
     <i type="int" name="NRMM">     4</i>
     <i name="TIME">      0.40000000</i>
    </separator>
   </separator>
   <separator name="electronic mixer" >
    <i name="AMIX">      0.40000000</i>
    <i name="BMIX">      1.00000000</i>
    <i name="AMIN">      0.10000000</i>
    <i name="AMIX_MAG">      1.60000000</i>
    <i name="BMIX_MAG">      1.00000000</i>
    <separator name="electronic mixer details" >
     <i type="int" name="IMIX">     4</i>
     <i type="int" name="MAXMIX">   -45</i>
     <i name="WC">    100.00000000</i>
     <i type="int" name="INIMIX">     1</i>
     <i type="int" name="MIXPRE">     1</i>
     <i type="int" name="MREMOVE">     5</i>
    </separator>
   </separator>
   <separator name="electronic dipolcorrection" >
    <i type="logical" name="LDIPOL"> F  </i>
    <i type="logical" name="LMONO"> F  </i>
    <i type="int" name="IDIPOL">     0</i>
    <i name="EPSILON">      1.00000000</i>
    <v name="DIPOL">   -100.00000000   -100.00000000   -100.00000000</v>
    <i name="EFIELD">      0.00000000</i>
   </separator>
  </separator>
  <separator name="grids" >
   <i type="int" name="NGX">    64</i>
   <i type="int" name="NGY">    36</i>
   <i type="int" name="NGZ">   288</i>
   <i type="int" name="NGXF">   128</i>
   <i type="int" name="NGYF">    72</i>
   <i type="int" name="NGZF">   576</i>
   <i type="logical" name="ADDGRID"> F  </i>
  </separator>
  <separator name="ionic" >
   <i type="int" name="NSW">   400</i>
   <i type="int" name="IBRION">     1</i>
   <i type="int" name="ISIF">     2</i>
   <i name="PSTRESS">      0.00000000</i>
   <i name="EDIFFG">     -0.00000100</i>
   <i type="int" name="NFREE">     0</i>
   <i name="POTIM">      0.50000000</i>
   <i name="SMASS">     -3.00000000</i>
   <i name="SCALEE">      1.00000000</i>
  </separator>
  <separator name="ionic md" >
   <i name="TEBEG">      0.00010000</i>
   <i name="TEEND">      0.00010000</i>
   <i type="int" name="NBLOCK">     1</i>
   <i type="int" name="KBLOCK">   400</i>
   <i type="int" name="NPACO">   256</i>
   <i name="APACO">     16.00000000</i>
  </separator>
  <separator name="symmetry" >
   <i type="int" name="ISYM">     2</i>
   <i name="SYMPREC">      0.00001000</i>
  </separator>
  <separator name="dos" >
   <i type="logical" name="LORBIT"> F  </i>
   <v name="RWIGS">     -1.00000000</v>
   <i type="int" name="NEDOS">   301</i>
   <i name="EMIN">     10.00000000</i>
   <i name="EMAX">    -10.00000000</i>
   <i name="EFERMI">      0.00000000</i>
  </separator>
  <separator name="writing" >
   <i type="int" name="NWRITE">     2</i>
   <i type="logical" name="LWAVE"> F  </i>
   <i type="logical" name="LCHARG"> F  </i>
   <i type="logical" name="LPARD"> F  </i>
   <i type="logical" name="LVTOT"> F  </i>
   <i type="logical" name="LVHAR"> F  </i>
   <i type="logical" name="LELF"> F  </i>
   <i type="logical" name="LOPTICS"> F  </i>
   <v name="STM">      0.00000000      0.00000000      0.00000000      0.00000000      0.00000000      0.00000000      0.00000000</v>
  </separator>
  <separator name="performance" >
   <i type="int" name="NPAR">     4</i>
   <i type="int" name="NSIM">     4</i>
   <i type="int" name="NBLK">    -1</i>
   <i type="logical" name="LPLANE"> T  </i>
   <i type="logical" name="LSCALAPACK"> F  </i>
   <i type="logical" name="LSCAAWARE"> F  </i>
   <i type="logical" name="LSCALU"> F  </i>
   <i type="logical" name="LASYNC"> F  </i>
   <i type="logical" name="LORBITALREAL"> F  </i>
  </separator>
  <separator name="miscellaneous" >
   <i type="int" name="IDIOT">     3</i>
   <i type="logical" name="LMUSIC"> F  </i>
   <v name="POMASS">     12.01100000</v>
   <v name="DARWINR">      0.00000000</v>
   <v name="DARWINV">      1.00000000</v>
   <i type="logical" name="LCORR"> T  </i>
  </separator>
  <i type="logical" name="GGA_COMPAT"> T  </i>
  <i type="logical" name="LBERRY"> F  </i>
  <i type="int" name="ICORELEVEL">     0</i>
  <i type="logical" name="LDAU"> F  </i>
  <i type="int" name="I_CONSTRAINED_M">     0</i>
  <separator name="electronic exchange-correlation" >
   <i type="string" name="GGA">--</i>
   <i type="int" name="VOSKOWN">     0</i>
   <i type="logical" name="LHFCALC"> F  </i>
   <i type="string" name="PRECFOCK"></i>
   <i type="logical" name="LSYMGRAD"> F  </i>
   <i type="logical" name="LHFONE"> F  </i>
   <i type="logical" name="LRHFCALC"> F  </i>
   <i type="logical" name="LTHOMAS"> F  </i>
   <i type="logical" name="LMODELHF"> F  </i>
   <i name="ENCUT4O">     -1.00000000</i>
   <i type="int" name="EXXOEP">     0</i>
   <i type="int" name="FOURORBIT">     0</i>
   <i name="AEXX">      0.00000000</i>
   <i name="HFALPHA">      0.00000000</i>
   <i name="MCALPHA">      0.00000000</i>
   <i name="ALDAX">      1.00000000</i>
   <i name="AGGAX">      1.00000000</i>
   <i name="ALDAC">      1.00000000</i>
   <i name="AGGAC">      1.00000000</i>
   <i type="int" name="NKREDX">     1</i>
   <i type="int" name="NKREDY">     1</i>
   <i type="int" name="NKREDZ">     1</i>
   <i type="logical" name="SHIFTRED"> F  </i>
   <i type="logical" name="ODDONLY"> F  </i>
   <i type="logical" name="EVENONLY"> F  </i>
   <i type="int" name="LMAXFOCK">     0</i>
   <i type="int" name="NMAXFOCKAE">     0</i>
   <i type="logical" name="LFOCKAEDFT"> F  </i>
   <i name="HFSCREEN">      0.00000000</i>
   <i name="HFSCREENC">      0.00000000</i>
   <i type="int" name="NBANDSGWLOW">     0</i>
  </separator>
  <separator name="vdW DFT" >
   <i type="logical" name="LUSE_VDW"> F  </i>
   <i name="Zab_VDW">     -0.84910000</i>
   <i name="PARAM1">      0.12340000</i>
   <i name="PARAM2">      1.00000000</i>
   <i name="PARAM3">      0.00000000</i>
  </separator>
  <separator name="model GW" >
   <i type="int" name="MODEL_GW">     0</i>
   <i name="MODEL_EPS0">     31.62568521</i>
   <i name="MODEL_ALPHA">      1.00000000</i>
  </separator>
  <separator name="linear response parameters" >
   <i type="logical" name="LEPSILON"> F  </i>
   <i type="logical" name="LRPA"> F  </i>
   <i type="logical" name="LNABLA"> F  </i>
   <i type="logical" name="LVEL"> F  </i>
   <i type="int" name="KINTER">     0</i>
   <i name="CSHIFT">      0.10000000</i>
   <i name="OMEGAMAX">     -1.00000000</i>
   <i name="DEG_THRESHOLD">      0.00200000</i>
  </separator>
  <separator name="orbital magnetization" >
   <i type="logical" name="NUCIND"> F  </i>
   <v name="MAGPOS">      0.00000000      0.00000000      0.00000000</v>
   <i type="logical" name="LNICSALL"> T  </i>
   <i type="logical" name="ORBITALMAG"> F  </i>
   <i type="logical" name="LMAGBLOCH"> F  </i>
   <i type="logical" name="LCHIMAG"> F  </i>
   <i type="logical" name="LGAUGE"> T  </i>
   <i type="int" name="MAGATOM">     0</i>
   <v name="MAGDIPOL">      0.00000000      0.00000000      0.00000000</v>
   <v name="AVECCONST">      0.00000000      0.00000000      0.00000000</v>
  </separator>
  <separator name="response functions" >
   <i type="logical" name="LADDER"> F  </i>
   <i type="logical" name="LFXC"> F  </i>
   <i type="logical" name="LHARTREE"> T  </i>
   <i type="int" name="IBSE">     0</i>
   <i type="logical" name="LTCTE"> F  </i>
   <i type="logical" name="LTETE"> F  </i>
   <i type="logical" name="LTRIPLET"> F  </i>
   <i type="logical" name="LFXCEPS"> F  </i>
   <i type="logical" name="LFXHEG"> F  </i>
   <i type="logical" name="L2ORDER"> F  </i>
   <i type="logical" name="LUSEW"> F  </i>
   <i name="ENCUTGW">     -2.00000000</i>
   <i name="ENCUTGWSOFT">     -2.00000000</i>
   <i name="ENCUTLF">     -1.00000000</i>
   <i type="int" name="LMAXMP2">    -1</i>
   <i name="SCISSOR">      0.00000000</i>
   <i type="int" name="NOMEGA">     0</i>
   <i type="int" name="NOMEGAR">     0</i>
   <i type="int" name="NBANDSGW">    -1</i>
   <i type="int" name="NBANDSO">    -1</i>
   <i type="int" name="NBANDSV">    -1</i>
   <i type="int" name="NELM">   100</i>
   <i type="int" name="DIM">     3</i>
   <i type="int" name="ANTIRES">     0</i>
   <i name="OMEGAMAX">    -30.00000000</i>
   <i name="OMEGAMIN">    -30.00000000</i>
   <i name="OMEGATL">   -200.00000000</i>
   <i type="int" name="OMEGAGRID">     0</i>
   <i name="CSHIFT">     -0.10000000</i>
   <i type="logical" name="SELFENERGY"> F  </i>
   <i type="logical" name="LSPECTRAL"> F  </i>
   <i type="logical" name="ODDONLYGW"> F  </i>
   <i type="logical" name="EVENONLYGW"> F  </i>
   <i type="int" name="NKREDLFX">     1</i>
   <i type="int" name="NKREDLFY">     1</i>
   <i type="int" name="NKREDLFZ">     1</i>
   <i type="int" name="MAXMEM">  1800</i>
   <i type="int" name="TELESCOPE">     0</i>
   <i type="int" name="TAUPAR">     1</i>
  </separator>
  <separator name="External order field" >
   <i name="OFIELD_KAPPA">      0.00000000</i>
   <v name="OFIELD_K">      0.00000000      0.00000000      0.00000000</v>
   <i name="OFIELD_Q6_NEAR">      0.00000000</i>
   <i name="OFIELD_Q6_FAR">      0.00000000</i>
   <i name="OFIELD_A">      0.00000000</i>
  </separator>
 </parameters>
 <atominfo>
  <atoms>       4 </atoms>
  <types>       1 </types>
  <array name="atoms" >
   <dimension dim="1">ion</dimension>
   <field type="string">element</field>
   <field type="int">atomtype</field>
   <set>
    <rc><c>C </c><c>   1</c></rc>
    <rc><c>C </c><c>   1</c></rc>
    <rc><c>C </c><c>   1</c></rc>
    <rc><c>C </c><c>   1</c></rc>
   </set>
  </array>
  <array name="atomtypes" >
   <dimension dim="1">type</dimension>
   <field type="int">atomspertype</field>
   <field type="string">element</field>
   <field>mass</field>
   <field>valence</field>
   <field type="string">pseudopotential</field>
   <set>
    <rc><c>   4</c><c>C </c><c>     12.01100000</c><c>      4.00000000</c><c> PAW_PBE C 08Apr2002                    </c></rc>
   </set>
  </array>
 </atominfo>
 <structure name="initialpos" >
  <crystal>
   <varray name="basis" >
    <v>       4.38009696       0.00000000       0.00000000 </v>
    <v>       0.00000000       2.45717771       0.00000000 </v>
    <v>       0.00000000       0.00000000      19.58972740 </v>
   </varray>
   <i name="volume">    210.83790140 </i>
   <varray name="rec_basis" >
    <v>       0.22830545       0.00000000       0.00000000 </v>
    <v>       0.00000000       0.40697097       0.00000000 </v>
    <v>       0.00000000       0.00000000       0.05104716 </v>
   </varray>
  </crystal>
  <varray name="positions" >
   <v>       0.99945869       0.00000000       0.00000000 </v>
   <v>       0.16720798       0.50000000       0.00000000 </v>
   <v>       0.49945869       0.50000000       0.00000000 </v>
   <v>       0.66720798       0.00000000       0.00000000 </v>
  </varray>
 </structure>
 <calculation>
  <scstep>
   <time name="dav">  291.29  291.43</time>
   <time name="total">  293.84  294.22</time>
   <energy>
    <i name="alphaZ">      6.18334092 </i>
    <i name="ewald">   2449.25187296 </i>
    <i name="hartreedc">  -2878.75192250 </i>
    <i name="XCdc">     54.81668512 </i>
    <i name="pawpsdc">    151.32577238 </i>
    <i name="pawaedc">   -155.92769107 </i>
    <i name="eentropy">     -0.00115805 </i>
    <i name="bandstr">    -28.13613762 </i>
    <i name="atom">    588.62352690 </i>
    <i name="e_fr_energy">    187.38428904 </i>
    <i name="e_wo_entrp">    187.38544709 </i>
    <i name="e_0_energy">    187.38486807 </i>
   </energy>
  </scstep>
  <scstep>
   <time name="dav">  445.54  445.82</time>
   <time name="total">  445.54  445.83</time>
   <energy>
    <i name="e_fr_energy">     -9.48657918 </i>
    <i name="e_wo_entrp">     -9.48627982 </i>
    <i name="e_0_energy">     -9.48642950 </i>
   </energy>
  </scstep>
  <scstep>
   <time name="dav">  340.69  340.87</time>
   <time name="total">  370.29  370.53</time>
   <energy>
    <i name="e_fr_energy">    -38.08976254 </i>
    <i name="e_wo_entrp">    -38.08976253 </i>
    <i name="e_0_energy">    -38.08976253 </i>
   </energy>
  </scstep>
  <scstep>
   <time name="diag">   79.34   79.39</time>
   <time name="diis">  337.11  337.33</time>
   <time name="orth">    3.06    3.07</time>
   <time name="total">  451.73  452.05</time>
   <energy>
    <i name="e_fr_energy">    -37.57239413 </i>
    <i name="e_wo_entrp">    -37.57239412 </i>
    <i name="e_0_energy">    -37.57239412 </i>
   </energy>
  </scstep>
  <scstep>
   <time name="diag">   79.46   79.50</time>
   <time name="diis">  332.35  332.41</time>
   <time name="orth">    3.08    3.08</time>
   <time name="total">  447.14  447.27</time>
   <energy>
    <i name="e_fr_energy">    -36.86731448 </i>
    <i name="e_wo_entrp">    -36.86731445 </i>
    <i name="e_0_energy">    -36.86731447 </i>
   </energy>
  </scstep>
  <scstep>
   <time name="diag">   79.35   79.36</time>
   <time name="diis">  371.98  372.05</time>
   <time name="orth">    3.07    3.07</time>
   <time name="total">  486.40  486.51</time>
   <energy>
    <i name="e_fr_energy">    -36.86929092 </i>
    <i name="e_wo_entrp">    -36.86929090 </i>
    <i name="e_0_energy">    -36.86929091 </i>
   </energy>
  </scstep>
  <scstep>
   <time name="diag">   79.40   79.42</time>
   <time name="diis">  331.37  331.43</time>
   <time name="orth">    3.07    3.07</time>
   <time name="total">  446.34  446.44</time>
   <energy>
    <i name="e_fr_energy">    -36.86042288 </i>
    <i name="e_wo_entrp">    -36.86042287 </i>
    <i name="e_0_energy">    -36.86042288 </i>
   </energy>
  </scstep>
  <scstep>
   <time name="diag">   79.38   79.40</time>
   <time name="diis">  332.44  333.51</time>
   <time name="orth">    3.09    3.09</time>
   <time name="total">  447.29  448.39</time>
   <energy>
    <i name="e_fr_energy">    -36.85557428 </i>
    <i name="e_wo_entrp">    -36.85557427 </i>
    <i name="e_0_energy">    -36.85557427 </i>
   </energy>
  </scstep>
  <scstep>
   <time name="diag">   79.29   79.35</time>
   <time name="diis">  320.57  320.63</time>
   <time name="orth">    3.06    3.06</time>
   <time name="total">  435.39  435.59</time>
   <energy>
    <i name="e_fr_energy">    -36.85534581 </i>
    <i name="e_wo_entrp">    -36.85534579 </i>
    <i name="e_0_energy">    -36.85534580 </i>
   </energy>
  </scstep>
  <scstep>
   <time name="diag">   79.23   79.30</time>
   <time name="diis">  321.38  321.59</time>
   <time name="orth">    3.06    3.06</time>
   <time name="total">  436.09  436.52</time>
   <energy>
    <i name="e_fr_energy">    -36.85524122 </i>
    <i name="e_wo_entrp">    -36.85524120 </i>
    <i name="e_0_energy">    -36.85524121 </i>
   </energy>
  </scstep>
  <scstep>
   <time name="diag">   79.28   79.30</time>
   <time name="diis">  322.39  323.07</time>
   <time name="orth">    3.08    3.09</time>
   <time name="total">  436.92  437.64</time>
   <energy>
    <i name="e_fr_energy">    -36.85753708 </i>
    <i name="e_wo_entrp">    -36.85753706 </i>
    <i name="e_0_energy">    -36.85753707 </i>
   </energy>
  </scstep>
  <scstep>
   <time name="diag">   79.26   79.27</time>
   <time name="diis">  324.28  324.34</time>
   <time name="orth">    3.09    3.10</time>
   <time name="total">  438.68  438.97</time>
   <energy>
    <i name="e_fr_energy">    -36.85803372 </i>
    <i name="e_wo_entrp">    -36.85803370 </i>
    <i name="e_0_energy">    -36.85803371 </i>
   </energy>
  </scstep>
  <scstep>
   <time name="diag">   79.22   79.40</time>
   <time name="diis">  331.70  331.91</time>
   <time name="orth">    3.06    3.06</time>
   <time name="total">  446.38  446.78</time>
   <energy>
    <i name="e_fr_energy">    -36.85828724 </i>
    <i name="e_wo_entrp">    -36.85828722 </i>
    <i name="e_0_energy">    -36.85828723 </i>
   </energy>
  </scstep>
  <scstep>
   <time name="diag">   78.89   78.93</time>
   <time name="diis">  327.37  327.59</time>
   <time name="orth">    3.08    3.08</time>
   <time name="total">  441.70  441.98</time>
   <energy>
    <i name="e_fr_energy">    -36.85837004 </i>
    <i name="e_wo_entrp">    -36.85837002 </i>
    <i name="e_0_energy">    -36.85837003 </i>
   </energy>
  </scstep>
  <scstep>
   <time name="diag">   78.87   78.88</time>
   <time name="diis">  322.11  322.41</time>
   <time name="orth">    3.07    3.08</time>
   <time name="total">  436.48  436.96</time>
   <energy>
    <i name="e_fr_energy">    -36.85838339 </i>
    <i name="e_wo_entrp">    -36.85838337 </i>
    <i name="e_0_energy">    -36.85838338 </i>
   </energy>
  </scstep>
  <scstep>
   <time name="diag">   78.90   78.91</time>
   <time name="diis">  320.80  320.86</time>
   <time name="orth">    3.08    3.08</time>
   <time name="total">  435.24  435.32</time>
   <energy>
    <i name="e_fr_energy">    -36.85839651 </i>
    <i name="e_wo_entrp">    -36.85839649 </i>
    <i name="e_0_energy">    -36.85839650 </i>
   </energy>
  </scstep>
  <scstep>
   <time name="diag">   78.90   78.92</time>
   <time name="diis">  320.81  321.40</time>
   <time name="orth">    3.06    3.06</time>
   <time name="total">  435.00  435.78</time>
   <energy>
    <i name="e_fr_energy">    -36.85840248 </i>
    <i name="e_wo_entrp">    -36.85840246 </i>
    <i name="e_0_energy">    -36.85840247 </i>
   </energy>
  </scstep>
  <scstep>
   <time name="diag">   78.69   78.92</time>
   <time name="diis">  325.89  325.94</time>
   <time name="orth">    3.06    3.06</time>
   <time name="total">  439.99  440.32</time>
   <energy>
    <i name="e_fr_energy">    -36.85840352 </i>
    <i name="e_wo_entrp">    -36.85840351 </i>
    <i name="e_0_energy">    -36.85840352 </i>
   </energy>
  </scstep>
  <scstep>
   <time name="diag">   78.48   78.50</time>
   <time name="diis">  313.39  313.44</time>
   <time name="orth">    3.08    3.08</time>
   <time name="total">  427.43  427.51</time>
   <energy>
    <i name="e_fr_energy">    -36.85840428 </i>
    <i name="e_wo_entrp">    -36.85840426 </i>
    <i name="e_0_energy">    -36.85840427 </i>
   </energy>
  </scstep>
  <scstep>
   <time name="diag">   78.49   78.50</time>
   <time name="diis">  250.25  250.30</time>
   <time name="orth">    3.08    3.08</time>
   <time name="total">  364.08  364.18</time>
   <energy>
    <i name="e_fr_energy">    -36.85840432 </i>
    <i name="e_wo_entrp">    -36.85840430 </i>
    <i name="e_0_energy">    -36.85840431 </i>
   </energy>
  </scstep>
  <scstep>
   <time name="diag">   78.55   78.56</time>
   <time name="diis">  242.46  242.50</time>
   <time name="orth">    3.08    3.08</time>
   <time name="total">  356.46  356.54</time>
   <energy>
    <i name="e_fr_energy">    -36.85840433 </i>
    <i name="e_wo_entrp">    -36.85840431 </i>
    <i name="e_0_energy">    -36.85840432 </i>
   </energy>
  </scstep>
  <scstep>
   <time name="diag">   78.52   78.53</time>
   <time name="diis">  223.94  223.98</time>
   <time name="orth">    3.06    3.06</time>
   <time name="total">  338.02  338.09</time>
   <energy>
    <i name="e_fr_energy">    -36.85840433 </i>
    <i name="e_wo_entrp">    -36.85840431 </i>
    <i name="e_0_energy">    -36.85840432 </i>
   </energy>
  </scstep>
  <scstep>
   <time name="diag">   78.51   78.53</time>
   <time name="diis">  214.84  215.22</time>
   <time name="orth">    3.06    3.06</time>
   <time name="total">  328.81  329.35</time>
   <energy>
    <i name="e_fr_energy">    -36.85840433 </i>
    <i name="e_wo_entrp">    -36.85840431 </i>
    <i name="e_0_energy">    -36.85840432 </i>
   </energy>
  </scstep>
  <scstep>
   <time name="diag">   78.15   78.55</time>
   <time name="diis">  198.59  198.80</time>
   <time name="orth">    3.08    3.08</time>
   <time name="total">  312.27  312.95</time>
   <energy>
    <i name="e_fr_energy">    -36.85840433 </i>
    <i name="e_wo_entrp">    -36.85840431 </i>
    <i name="e_0_energy">    -36.85840432 </i>
   </energy>
  </scstep>
  <scstep>
   <time name="diag">   78.49   78.54</time>
   <time name="diis">  190.09  190.23</time>
   <time name="orth">    3.08    3.08</time>
   <time name="total">  274.19  274.38</time>
   <energy>
    <i name="alphaZ">      6.18334092 </i>
    <i name="ewald">   2449.25187296 </i>
    <i name="hartreedc">  -2943.53749271 </i>
    <i name="XCdc">     57.14108941 </i>
    <i name="pawpsdc">    268.80809657 </i>
    <i name="pawaedc">   -273.91953739 </i>
    <i name="eentropy">     -0.00000002 </i>
    <i name="bandstr">   -189.40930098 </i>
    <i name="atom">    588.62352690 </i>
    <i name="e_fr_energy">    -36.85840433 </i>
    <i name="e_wo_entrp">    -36.85840431 </i>
    <i name="e_0_energy">    -36.85840432 </i>
   </energy>
  </scstep>
  <structure>
   <crystal>
    <varray name="basis" >
     <v>       4.38009696       0.00000000       0.00000000 </v>
     <v>       0.00000000       2.45717771       0.00000000 </v>
     <v>       0.00000000       0.00000000      19.58972740 </v>
    </varray>
    <i name="volume">    210.83790140 </i>
    <varray name="rec_basis" >
     <v>       0.22830545       0.00000000       0.00000000 </v>
     <v>       0.00000000       0.40697097       0.00000000 </v>
     <v>       0.00000000       0.00000000       0.05104716 </v>
    </varray>
   </crystal>
   <varray name="positions" >
    <v>       0.99945869       0.00000000       0.00000000 </v>
    <v>       0.16720798       0.50000000       0.00000000 </v>
    <v>       0.49945869       0.50000000       0.00000000 </v>
    <v>       0.66720798       0.00000000       0.00000000 </v>
   </varray>
  </structure>
  <varray name="forces" >
   <v>       0.00069289       0.00000000       0.00000000 </v>
   <v>      -0.00069289      -0.00000000       0.00000000 </v>
   <v>       0.00069289       0.00000000       0.00000000 </v>
   <v>      -0.00069289      -0.00000000       0.00000000 </v>
  </varray>
  <varray name="stress" >
   <v>     -41.13993709       0.00000000       0.00000000 </v>
   <v>       0.00000000      -0.00762054       0.00000000 </v>
   <v>       0.00000000       0.00000000      -0.01020046 </v>
  </varray>
  <energy>
   <i name="e_fr_energy">    -36.85840433 </i>
   <i name="e_wo_entrp">    -36.85840432 </i>
   <i name="e_0_energy">     -0.00000002 </i>
  </energy>
  <time name="totalsc">10271.8210280.41</time>
 </calculation>
 <calculation>
  <scstep>
   <time name="dav">  305.03  305.76</time>
   <time name="total">  337.50  338.25</time>
   <energy>
    <i name="alphaZ">      6.18334092 </i>
    <i name="ewald">   2449.25258807 </i>
    <i name="hartreedc">  -2943.53780407 </i>
    <i name="XCdc">     57.14110970 </i>
    <i name="pawpsdc">    268.80809381 </i>
    <i name="pawaedc">   -273.91953454 </i>
    <i name="eentropy">     -0.00000002 </i>
    <i name="bandstr">   -189.40972497 </i>
    <i name="atom">    588.62352690 </i>
    <i name="e_fr_energy">    -36.85840420 </i>
    <i name="e_wo_entrp">    -36.85840418 </i>
    <i name="e_0_energy">    -36.85840419 </i>
   </energy>
  </scstep>
  <scstep>
   <time name="diag">   78.80   78.81</time>
   <time name="diis">  321.74  321.79</time>
   <time name="orth">    3.09    3.09</time>
   <time name="total">  436.05  436.12</time>
   <energy>
    <i name="e_fr_energy">    -36.85840421 </i>
    <i name="e_wo_entrp">    -36.85840420 </i>
    <i name="e_0_energy">    -36.85840421 </i>
   </energy>
  </scstep>
  <scstep>
   <time name="diag">   78.76   78.77</time>
   <time name="diis">  324.22  324.48</time>
   <time name="orth">    3.08    3.08</time>
   <time name="total">  438.44  438.74</time>
   <energy>
    <i name="e_fr_energy">    -36.85840421 </i>
    <i name="e_wo_entrp">    -36.85840420 </i>
    <i name="e_0_energy">    -36.85840420 </i>
   </energy>
  </scstep>
  <scstep>
   <time name="diag">   78.78   78.82</time>
   <time name="diis">  328.96  329.25</time>
   <time name="orth">    3.05    3.06</time>
   <time name="total">  443.07  443.48</time>
   <energy>
    <i name="e_fr_energy">    -36.85840421 </i>
    <i name="e_wo_entrp">    -36.85840419 </i>
    <i name="e_0_energy">    -36.85840420 </i>
   </energy>
  </scstep>
  <scstep>
   <time name="diag">   78.76   78.80</time>
   <time name="diis">  225.99  226.17</time>
   <time name="orth">    3.06    3.06</time>
   <time name="total">  340.25  340.61</time>
   <energy>
    <i name="e_fr_energy">    -36.85840421 </i>
    <i name="e_wo_entrp">    -36.85840420 </i>
    <i name="e_0_energy">    -36.85840420 </i>
   </energy>
  </scstep>
  <scstep>
   <time name="diag">   78.70   78.72</time>
   <time name="diis">  210.17  210.27</time>
   <time name="orth">    3.06    3.07</time>
   <time name="total">  323.22  323.35</time>
   <energy>
    <i name="e_fr_energy">    -36.85840421 </i>
    <i name="e_wo_entrp">    -36.85840420 </i>
    <i name="e_0_energy">    -36.85840420 </i>
   </energy>
  </scstep>
  <scstep>
   <time name="diag">   78.72   78.73</time>
   <time name="diis">  211.14  211.19</time>
   <time name="orth">    3.08    3.08</time>
   <time name="total">  295.45  295.51</time>
   <energy>
    <i name="alphaZ">      6.18334092 </i>
    <i name="ewald">   2449.25258807 </i>
    <i name="hartreedc">  -2943.53807516 </i>
    <i name="XCdc">     57.14112140 </i>
    <i name="pawpsdc">    268.80930492 </i>
    <i name="pawaedc">   -273.92075104 </i>
    <i name="eentropy">     -0.00000002 </i>
    <i name="bandstr">   -189.40946022 </i>
    <i name="atom">    588.62352690 </i>
    <i name="e_fr_energy">    -36.85840421 </i>
    <i name="e_wo_entrp">    -36.85840420 </i>
    <i name="e_0_energy">    -36.85840420 </i>
   </energy>
  </scstep>
  <structure>
   <crystal>
    <varray name="basis" >
     <v>       4.38009696       0.00000000       0.00000000 </v>
     <v>       0.00000000       2.45717771       0.00000000 </v>
     <v>       0.00000000       0.00000000      19.58972740 </v>
    </varray>
    <i name="volume">    210.83790140 </i>
    <varray name="rec_basis" >
     <v>       0.22830545       0.00000000       0.00000000 </v>
     <v>       0.00000000       0.40697097       0.00000000 </v>
     <v>       0.00000000       0.00000000       0.05104716 </v>
    </varray>
   </crystal>
   <varray name="positions" >
    <v>       0.99946632       0.00000000       0.00000000 </v>
    <v>       0.16720034       0.50000000       0.00000000 </v>
    <v>       0.49946632       0.50000000       0.00000000 </v>
    <v>       0.66720034      -0.00000000       0.00000000 </v>
   </varray>
  </structure>
  <varray name="forces" >
   <v>      -0.00255430      -0.00000000      -0.00000000 </v>
   <v>       0.00255430      -0.00000000       0.00000000 </v>
   <v>      -0.00255430      -0.00000000      -0.00000000 </v>
   <v>       0.00255430       0.00000000       0.00000000 </v>
  </varray>
  <varray name="stress" >
   <v>     -41.14512699       0.00000000       0.00000000 </v>
   <v>       0.00000000       0.00311273       0.00000000 </v>
   <v>       0.00000000       0.00000000      -0.01014293 </v>
  </varray>
  <energy>
   <i name="e_fr_energy">    -36.85840421 </i>
   <i name="e_wo_entrp">    -36.85840420 </i>
   <i name="e_0_energy">     -0.00000002 </i>
  </energy>
  <time name="totalsc"> 2713.76 2715.94</time>
 </calculation>
 <calculation>
  <scstep>
   <time name="dav">  323.92  324.16</time>
   <time name="total">  355.73  355.99</time>
   <energy>
    <i name="alphaZ">      6.18334092 </i>
    <i name="ewald">   2449.25202543 </i>
    <i name="hartreedc">  -2943.53783894 </i>
    <i name="XCdc">     57.14110549 </i>
    <i name="pawpsdc">    268.80930872 </i>
    <i name="pawaedc">   -273.92075482 </i>
    <i name="eentropy">     -0.00000002 </i>
    <i name="bandstr">   -189.40911803 </i>
    <i name="atom">    588.62352690 </i>
    <i name="e_fr_energy">    -36.85840435 </i>
    <i name="e_wo_entrp">    -36.85840433 </i>
    <i name="e_0_energy">    -36.85840434 </i>
   </energy>
  </scstep>
  <scstep>
   <time name="diag">   78.71   78.74</time>
   <time name="diis">  321.34  321.80</time>
   <time name="orth">    3.06    3.07</time>
   <time name="total">  434.76  435.28</time>
   <energy>
    <i name="e_fr_energy">    -36.85840435 </i>
    <i name="e_wo_entrp">    -36.85840433 </i>
    <i name="e_0_energy">    -36.85840434 </i>
   </energy>
  </scstep>
  <scstep>
   <time name="diag">   78.61   78.67</time>
   <time name="diis">  321.49  321.56</time>
   <time name="orth">    3.06    3.07</time>
   <time name="total">  434.50  434.88</time>
   <energy>
    <i name="e_fr_energy">    -36.85840434 </i>
    <i name="e_wo_entrp">    -36.85840432 </i>
    <i name="e_0_energy">    -36.85840433 </i>
   </energy>
  </scstep>
  <scstep>
   <time name="diag">   78.72   78.75</time>
   <time name="diis">  321.53  321.59</time>
   <time name="orth">    3.07    3.07</time>
   <time name="total">  434.15  434.33</time>
   <energy>
    <i name="e_fr_energy">    -36.85840434 </i>
    <i name="e_wo_entrp">    -36.85840432 </i>
    <i name="e_0_energy">    -36.85840433 </i>
   </energy>
  </scstep>
  <scstep>
   <time name="diag">   78.60   78.64</time>
   <time name="diis">  218.21  218.31</time>
   <time name="orth">    3.08    3.08</time>
   <time name="total">  330.98  331.14</time>
   <energy>
    <i name="e_fr_energy">    -36.85840434 </i>
    <i name="e_wo_entrp">    -36.85840432 </i>
    <i name="e_0_energy">    -36.85840433 </i>
   </energy>
  </scstep>
  <scstep>
   <time name="diag">   78.64   78.66</time>
   <time name="diis">  205.21  205.24</time>
   <time name="orth">    3.07    3.07</time>
   <time name="total">  289.43  289.52</time>
   <energy>
    <i name="alphaZ">      6.18334092 </i>
    <i name="ewald">   2449.25202543 </i>
    <i name="hartreedc">  -2943.53763866 </i>
    <i name="XCdc">     57.14109639 </i>
    <i name="pawpsdc">    268.80835511 </i>
    <i name="pawaedc">   -273.91979706 </i>
    <i name="eentropy">     -0.00000002 </i>
    <i name="bandstr">   -189.40931336 </i>
    <i name="atom">    588.62352690 </i>
    <i name="e_fr_energy">    -36.85840434 </i>
    <i name="e_wo_entrp">    -36.85840432 </i>
    <i name="e_0_energy">    -36.85840433 </i>
   </energy>
  </scstep>
  <structure>
   <crystal>
    <varray name="basis" >
     <v>       4.38009696       0.00000000       0.00000000 </v>
     <v>       0.00000000       2.45717771       0.00000000 </v>
     <v>       0.00000000       0.00000000      19.58972740 </v>
    </varray>
    <i name="volume">    210.83790140 </i>
    <varray name="rec_basis" >
     <v>       0.22830545       0.00000000       0.00000000 </v>
     <v>       0.00000000       0.40697097       0.00000000 </v>
     <v>       0.00000000       0.00000000       0.05104716 </v>
    </varray>
   </crystal>
   <varray name="positions" >
    <v>       0.99946032       0.00000000      -0.00000000 </v>
    <v>       0.16720635       0.50000000       0.00000000 </v>
    <v>       0.49946032       0.50000000      -0.00000000 </v>
    <v>       0.66720635      -0.00000000       0.00000000 </v>
   </varray>
  </structure>
  <varray name="forces" >
   <v>      -0.00000406      -0.00000000      -0.00000000 </v>
   <v>       0.00000406      -0.00000000       0.00000000 </v>
   <v>      -0.00000406       0.00000000      -0.00000000 </v>
   <v>       0.00000406      -0.00000000       0.00000000 </v>
  </varray>
  <varray name="stress" >
   <v>     -41.14111059       0.00000000       0.00000000 </v>
   <v>       0.00000000      -0.00523158       0.00000000 </v>
   <v>       0.00000000       0.00000000      -0.01021202 </v>
  </varray>
  <energy>
   <i name="e_fr_energy">    -36.85840434 </i>
   <i name="e_wo_entrp">    -36.85840433 </i>
   <i name="e_0_energy">     -0.00000002 </i>
  </energy>
  <time name="totalsc"> 2379.28 2380.96</time>
 </calculation>
 <calculation>
  <scstep>
   <time name="dav">  254.79  256.00</time>
   <time name="total">  286.24  287.59</time>
   <energy>
    <i name="alphaZ">      6.18334092 </i>
    <i name="ewald">   2449.25202453 </i>
    <i name="hartreedc">  -2943.53763411 </i>
    <i name="XCdc">     57.14109624 </i>
    <i name="pawpsdc">    268.80835318 </i>
    <i name="pawaedc">   -273.91979508 </i>
    <i name="eentropy">     -0.00000002 </i>
    <i name="bandstr">   -189.40931690 </i>
    <i name="atom">    588.62352690 </i>
    <i name="e_fr_energy">    -36.85840434 </i>
    <i name="e_wo_entrp">    -36.85840432 </i>
    <i name="e_0_energy">    -36.85840433 </i>
   </energy>
  </scstep>
  <scstep>
   <time name="diag">   78.29   78.69</time>
   <time name="diis">  164.42  165.18</time>
   <time name="orth">    3.07    3.08</time>
   <time name="total">  277.06  278.36</time>
   <energy>
    <i name="e_fr_energy">    -36.85840434 </i>
    <i name="e_wo_entrp">    -36.85840432 </i>
    <i name="e_0_energy">    -36.85840433 </i>
   </energy>
  </scstep>
  <scstep>
   <time name="diag">   78.50   78.83</time>
   <time name="diis">  160.81  161.78</time>
   <time name="orth">    3.08    3.08</time>
   <time name="total">  273.93  275.30</time>
   <energy>
    <i name="e_fr_energy">    -36.85840434 </i>
    <i name="e_wo_entrp">    -36.85840432 </i>
    <i name="e_0_energy">    -36.85840433 </i>
   </energy>
  </scstep>
  <scstep>
   <time name="diag">   78.59   78.66</time>
   <time name="diis">  157.60  158.00</time>
   <time name="orth">    3.06    3.08</time>
   <time name="total">  270.63  271.22</time>
   <energy>
    <i name="e_fr_energy">    -36.85840434 </i>
    <i name="e_wo_entrp">    -36.85840432 </i>
    <i name="e_0_energy">    -36.85840433 </i>
   </energy>
  </scstep>
  <scstep>
   <time name="diag">   78.55   78.68</time>
   <time name="diis">  155.49  155.71</time>
   <time name="orth">    3.08    3.09</time>
   <time name="total">  239.59  250.37</time>
   <energy>
    <i name="alphaZ">      6.18334092 </i>
    <i name="ewald">   2449.25202453 </i>
    <i name="hartreedc">  -2943.53761670 </i>
    <i name="XCdc">     57.14109601 </i>
    <i name="pawpsdc">    268.80834845 </i>
    <i name="pawaedc">   -273.91979034 </i>
    <i name="eentropy">     -0.00000002 </i>
    <i name="bandstr">   -189.40933409 </i>
    <i name="atom">    588.62352690 </i>
    <i name="e_fr_energy">    -36.85840434 </i>
    <i name="e_wo_entrp">    -36.85840432 </i>
    <i name="e_0_energy">    -36.85840433 </i>
   </energy>
  </scstep>
  <structure>
   <crystal>
    <varray name="basis" >
     <v>       4.38009696       0.00000000       0.00000000 </v>
     <v>       0.00000000       2.45717771       0.00000000 </v>
     <v>       0.00000000       0.00000000      19.58972740 </v>
    </varray>
    <i name="volume">    210.83790140 </i>
    <varray name="rec_basis" >
     <v>       0.22830545       0.00000000       0.00000000 </v>
     <v>       0.00000000       0.40697097       0.00000000 </v>
     <v>       0.00000000       0.00000000       0.05104716 </v>
    </varray>
   </crystal>
   <varray name="positions" >
    <v>       0.99946031       0.00000000      -0.00000000 </v>
    <v>       0.16720636       0.50000000       0.00000000 </v>
    <v>       0.49946031       0.50000000      -0.00000000 </v>
    <v>       0.66720636      -0.00000000       0.00000000 </v>
   </varray>
  </structure>
  <varray name="forces" >
   <v>       0.00000520       0.00000000      -0.00000000 </v>
   <v>      -0.00000520       0.00000000       0.00000000 </v>
   <v>       0.00000520       0.00000000      -0.00000000 </v>
   <v>      -0.00000520      -0.00000000       0.00000000 </v>
  </varray>
  <varray name="stress" >
   <v>     -41.14102356       0.00000000       0.00000000 </v>
   <v>       0.00000000      -0.00532719       0.00000000 </v>
   <v>       0.00000000       0.00000000      -0.01019227 </v>
  </varray>
  <energy>
   <i name="e_fr_energy">    -36.85840434 </i>
   <i name="e_wo_entrp">    -36.85840433 </i>
   <i name="e_0_energy">     -0.00000002 </i>
  </energy>
  <time name="totalsc"> 1445.78 1461.49</time>
 </calculation>
 <calculation>
  <scstep>
   <time name="dav">  248.78  250.00</time>
   <time name="total">  280.08  281.50</time>
   <energy>
    <i name="alphaZ">      6.18334092 </i>
    <i name="ewald">   2449.25202503 </i>
    <i name="hartreedc">  -2943.53761639 </i>
    <i name="XCdc">     57.14109602 </i>
    <i name="pawpsdc">    268.80834849 </i>
    <i name="pawaedc">   -273.91979038 </i>
    <i name="eentropy">     -0.00000002 </i>
    <i name="bandstr">   -189.40933491 </i>
    <i name="atom">    588.62352690 </i>
    <i name="e_fr_energy">    -36.85840434 </i>
    <i name="e_wo_entrp">    -36.85840432 </i>
    <i name="e_0_energy">    -36.85840433 </i>
   </energy>
  </scstep>
  <scstep>
   <time name="diag">   78.01   78.82</time>
   <time name="diis">  141.65  142.88</time>
   <time name="orth">    3.06    3.06</time>
   <time name="total">  253.98  256.24</time>
   <energy>
    <i name="e_fr_energy">    -36.85840434 </i>
    <i name="e_wo_entrp">    -36.85840432 </i>
    <i name="e_0_energy">    -36.85840433 </i>
   </energy>
  </scstep>
  <scstep>
   <time name="diag">   78.19   78.68</time>
   <time name="diis">  142.36  142.93</time>
   <time name="orth">    3.07    3.09</time>
   <time name="total">  255.37  256.59</time>
   <energy>
    <i name="e_fr_energy">    -36.85840434 </i>
    <i name="e_wo_entrp">    -36.85840432 </i>
    <i name="e_0_energy">    -36.85840433 </i>
   </energy>
  </scstep>
  <scstep>
   <time name="diag">   78.18   78.71</time>
   <time name="diis">  141.98  143.02</time>
   <time name="orth">    3.08    3.09</time>
   <time name="total">  254.73  256.38</time>
   <energy>
    <i name="e_fr_energy">    -36.85840434 </i>
    <i name="e_wo_entrp">    -36.85840432 </i>
    <i name="e_0_energy">    -36.85840433 </i>
   </energy>
  </scstep>
  <scstep>
   <time name="diag">   78.05   78.73</time>
   <time name="diis">  141.54  142.52</time>
   <time name="orth">    3.06    3.08</time>
   <time name="total">  253.90  255.79</time>
   <energy>
    <i name="e_fr_energy">    -36.85840434 </i>
    <i name="e_wo_entrp">    -36.85840432 </i>
    <i name="e_0_energy">    -36.85840433 </i>
   </energy>
  </scstep>
  <scstep>
   <time name="diag">   78.31   78.74</time>
   <time name="diis">  140.90  141.95</time>
   <time name="orth">    3.05    3.08</time>
   <time name="total">  253.27  255.23</time>
   <energy>
    <i name="e_fr_energy">    -36.85840434 </i>
    <i name="e_wo_entrp">    -36.85840432 </i>
    <i name="e_0_energy">    -36.85840433 </i>
   </energy>
  </scstep>
  <scstep>
   <time name="diag">   78.66   78.71</time>
   <time name="diis">  141.79  141.90</time>
   <time name="orth">    3.06    3.06</time>
   <time name="total">  255.04  255.23</time>
   <energy>
    <i name="e_fr_energy">    -36.85840434 </i>
    <i name="e_wo_entrp">    -36.85840432 </i>
    <i name="e_0_energy">    -36.85840433 </i>
   </energy>
  </scstep>
  <scstep>
   <time name="diag">   78.67   78.68</time>
   <time name="diis">  132.01  132.04</time>
   <time name="orth">    3.06    3.06</time>
   <time name="total">  216.26  216.33</time>
   <energy>
    <i name="alphaZ">      6.18334092 </i>
    <i name="ewald">   2449.25202503 </i>
    <i name="hartreedc">  -2943.53761825 </i>
    <i name="XCdc">     57.14109610 </i>
    <i name="pawpsdc">    268.80835005 </i>
    <i name="pawaedc">   -273.91979196 </i>
    <i name="eentropy">     -0.00000002 </i>
    <i name="bandstr">   -189.40933312 </i>
    <i name="atom">    588.62352690 </i>
    <i name="e_fr_energy">    -36.85840434 </i>
    <i name="e_wo_entrp">    -36.85840432 </i>
    <i name="e_0_energy">    -36.85840433 </i>
   </energy>
  </scstep>
  <structure>
   <crystal>
    <varray name="basis" >
     <v>       4.38009696       0.00000000       0.00000000 </v>
     <v>       0.00000000       2.45717771       0.00000000 </v>
     <v>       0.00000000       0.00000000      19.58972740 </v>
    </varray>
    <i name="volume">    210.83790140 </i>
    <varray name="rec_basis" >
     <v>       0.22830545       0.00000000       0.00000000 </v>
     <v>       0.00000000       0.40697097       0.00000000 </v>
     <v>       0.00000000       0.00000000       0.05104716 </v>
    </varray>
   </crystal>
   <varray name="positions" >
    <v>       0.99946032       0.00000000      -0.00000000 </v>
    <v>       0.16720635       0.50000000       0.00000000 </v>
    <v>       0.49946032       0.50000000      -0.00000000 </v>
    <v>       0.66720635      -0.00000000       0.00000000 </v>
   </varray>
  </structure>
  <varray name="forces" >
   <v>      -0.00000032       0.00000000       0.00000000 </v>
   <v>       0.00000032      -0.00000000      -0.00000000 </v>
   <v>      -0.00000032       0.00000000       0.00000000 </v>
   <v>       0.00000032      -0.00000000      -0.00000000 </v>
  </varray>
  <varray name="stress" >
   <v>     -41.14104494       0.00000000       0.00000000 </v>
   <v>       0.00000000      -0.00530341       0.00000000 </v>
   <v>       0.00000000       0.00000000      -0.01017791 </v>
  </varray>
  <energy>
   <i name="e_fr_energy">    -36.85840434 </i>
   <i name="e_wo_entrp">    -36.85840433 </i>
   <i name="e_0_energy">     -0.00000002 </i>
  </energy>
  <time name="totalsc"> 2115.75 2126.51</time>
  <eigenvalues>
   <array>
    <dimension dim="1">band</dimension>
    <dimension dim="2">kpoint</dimension>
    <dimension dim="3">spin</dimension>
    <field>eigene</field>
    <field>occ</field>
    <set>
     <set comment="spin 1">
      <set comment="kpoint 1">
       <r>  -22.0806    1.0000 </r>
       <r>  -17.2576    1.0000 </r>
       <r>  -15.8325    1.0000 </r>
       <r>  -10.2253    1.0000 </r>
       <r>   -8.8046    1.0000 </r>
       <r>   -6.0066    1.0000 </r>
       <r>   -5.7271    1.0000 </r>
       <r>   -5.3354    1.0000 </r>
       <r>   -1.1860    0.0000 </r>
       <r>    0.5448    0.0000 </r>
       <r>    1.3429    0.0000 </r>
       <r>    1.7363    0.0000 </r>
      </set>
      <set comment="kpoint 2">
       <r>  -22.0708    1.0000 </r>
       <r>  -17.3757    1.0000 </r>
       <r>  -15.6994    1.0000 </r>
       <r>  -10.2138    1.0000 </r>
       <r>   -8.7952    1.0000 </r>
       <r>   -6.0509    1.0000 </r>
       <r>   -5.7472    1.0000 </r>
       <r>   -5.3941    1.0000 </r>
       <r>   -1.1116    0.0000 </r>
       <r>    0.5580    0.0000 </r>
       <r>    1.3563    0.0000 </r>
       <r>    1.7499    0.0000 </r>
      </set>
      <set comment="kpoint 3">
       <r>  -22.0416    1.0000 </r>
       <r>  -17.6492    1.0000 </r>
       <r>  -15.3811    1.0000 </r>
       <r>  -10.1790    1.0000 </r>
       <r>   -8.7669    1.0000 </r>
       <r>   -6.1816    1.0000 </r>
       <r>   -5.8064    1.0000 </r>
       <r>   -5.5584    1.0000 </r>
       <r>   -0.9003    0.0000 </r>
       <r>    0.5976    0.0000 </r>
       <r>    1.3964    0.0000 </r>
       <r>    1.7906    0.0000 </r>
      </set>
      <set comment="kpoint 4">
       <r>  -21.9928    1.0000 </r>
       <r>  -17.9795    1.0000 </r>
       <r>  -14.9762    1.0000 </r>
       <r>  -10.1212    1.0000 </r>
       <r>   -8.7199    1.0000 </r>
       <r>   -6.3929    1.0000 </r>
       <r>   -5.9016    1.0000 </r>
       <r>   -5.8010    1.0000 </r>
       <r>   -0.5799    0.0000 </r>
       <r>    0.6636    0.0000 </r>
       <r>    1.4634    0.0000 </r>
       <r>    1.8584    0.0000 </r>
      </set>
      <set comment="kpoint 5">
       <r>  -21.9246    1.0000 </r>
       <r>  -18.3243    1.0000 </r>
       <r>  -14.5276    1.0000 </r>
       <r>  -10.0405    1.0000 </r>
       <r>   -8.6545    1.0000 </r>
       <r>   -6.6761    1.0000 </r>
       <r>   -6.0936    1.0000 </r>
       <r>   -6.0286    1.0000 </r>
       <r>   -0.1795    0.0000 </r>
       <r>    0.7561    0.0000 </r>
       <r>    1.5570    0.0000 </r>
       <r>    1.9533    0.0000 </r>
      </set>
      <set comment="kpoint 6">
       <r>  -21.8370    1.0000 </r>
       <r>  -18.6673    1.0000 </r>
       <r>  -14.0522    1.0000 </r>
       <r>   -9.9368    1.0000 </r>
       <r>   -8.5711    1.0000 </r>
       <r>   -7.0210    1.0000 </r>
       <r>   -6.4138    1.0000 </r>
       <r>   -6.1818    1.0000 </r>
       <r>    0.2773    0.0000 </r>
       <r>    0.8750    0.0000 </r>
       <r>    1.6774    0.0000 </r>
       <r>    2.0754    0.0000 </r>
      </set>
      <set comment="kpoint 7">
       <r>  -21.7300    1.0000 </r>
       <r>  -19.0011    1.0000 </r>
       <r>  -13.5579    1.0000 </r>
       <r>   -9.8106    1.0000 </r>
       <r>   -8.4701    1.0000 </r>
       <r>   -7.4173    1.0000 </r>
       <r>   -6.7462    1.0000 </r>
       <r>   -6.3556    1.0000 </r>
       <r>    0.7736    0.0000 </r>
       <r>    1.0204    0.0000 </r>
       <r>    1.8244    0.0000 </r>
       <r>    2.2246    0.0000 </r>
      </set>
      <set comment="kpoint 8">
       <r>  -21.6038    1.0000 </r>
       <r>  -19.3224    1.0000 </r>
       <r>  -13.0492    1.0000 </r>
       <r>   -9.6619    1.0000 </r>
       <r>   -8.3522    1.0000 </r>
       <r>   -7.8551    1.0000 </r>
       <r>   -7.0803    1.0000 </r>
       <r>   -6.5442    1.0000 </r>
       <r>    1.1923    0.0000 </r>
       <r>    1.2969    0.0000 </r>
       <r>    1.9979    0.0000 </r>
       <r>    2.4009    0.0000 </r>
      </set>
      <set comment="kpoint 9">
       <r>  -21.4585    1.0000 </r>
       <r>  -19.6289    1.0000 </r>
       <r>  -12.5294    1.0000 </r>
       <r>   -9.4912    1.0000 </r>
       <r>   -8.3255    1.0000 </r>
       <r>   -8.2181    1.0000 </r>
       <r>   -7.4093    1.0000 </r>
       <r>   -6.7424    1.0000 </r>
       <r>    1.3906    0.0000 </r>
       <r>    1.8374    0.0000 </r>
       <r>    2.1977    0.0000 </r>
       <r>    2.6043    0.0000 </r>
      </set>
      <set comment="kpoint 10">
       <r>  -21.2941    1.0000 </r>
       <r>  -19.9195    1.0000 </r>
       <r>  -12.0011    1.0000 </r>
       <r>   -9.2987    1.0000 </r>
       <r>   -8.8207    1.0000 </r>
       <r>   -8.0690    1.0000 </r>
       <r>   -7.7284    1.0000 </r>
       <r>   -6.9454    1.0000 </r>
       <r>    1.6152    0.0000 </r>
       <r>    2.3860    0.0000 </r>
       <r>    2.4235    0.0000 </r>
       <r>    2.8349    0.0000 </r>
      </set>
      <set comment="kpoint 11">
       <r>  -21.1108    1.0000 </r>
       <r>  -20.1934    1.0000 </r>
       <r>  -11.4671    1.0000 </r>
       <r>   -9.3340    1.0000 </r>
       <r>   -9.0851    1.0000 </r>
       <r>   -8.0341    1.0000 </r>
       <r>   -7.9060    1.0000 </r>
       <r>   -7.1490    1.0000 </r>
       <r>    1.8662    0.0000 </r>
       <r>    2.6746    0.0000 </r>
       <r>    2.9285    0.0000 </r>
       <r>    3.0926    0.0000 </r>
      </set>
      <set comment="kpoint 12">
       <r>  -20.9088    1.0000 </r>
       <r>  -20.4498    1.0000 </r>
       <r>  -10.9301    1.0000 </r>
       <r>   -9.8597    1.0000 </r>
       <r>   -8.8509    1.0000 </r>
       <r>   -8.3243    1.0000 </r>
       <r>   -7.7305    1.0000 </r>
       <r>   -7.3497    1.0000 </r>
       <r>    2.1433    0.0000 </r>
       <r>    2.7758    0.0000 </r>
       <r>    2.9486    0.0000 </r>
       <r>    3.3706    0.0000 </r>
      </set>
      <set comment="kpoint 13">
       <r>  -20.6884    1.0000 </r>
       <r>  -20.6884    1.0000 </r>
       <r>  -10.3931    1.0000 </r>
       <r>  -10.3931    1.0000 </r>
       <r>   -8.5970    1.0000 </r>
       <r>   -8.5970    1.0000 </r>
       <r>   -7.5443    1.0000 </r>
       <r>   -7.5443    1.0000 </r>
       <r>    2.4466    0.0000 </r>
       <r>    2.4466    0.0000 </r>
       <r>    3.2346    0.0000 </r>
       <r>    3.2346    0.0000 </r>
      </set>
      <set comment="kpoint 14">
       <r>  -22.0668    1.0000 </r>
       <r>  -17.2456    1.0000 </r>
       <r>  -15.8207    1.0000 </r>
       <r>  -10.2089    1.0000 </r>
       <r>   -8.8680    1.0000 </r>
       <r>   -6.0327    1.0000 </r>
       <r>   -5.7862    1.0000 </r>
       <r>   -5.3187    1.0000 </r>
       <r>   -1.1884    0.0000 </r>
       <r>    0.5635    0.0000 </r>
       <r>    1.3618    0.0000 </r>
       <r>    1.7555    0.0000 </r>
      </set>
      <set comment="kpoint 15">
       <r>  -22.0570    1.0000 </r>
       <r>  -17.3636    1.0000 </r>
       <r>  -15.6877    1.0000 </r>
       <r>  -10.1973    1.0000 </r>
       <r>   -8.8585    1.0000 </r>
       <r>   -6.0777    1.0000 </r>
       <r>   -5.8049    1.0000 </r>
       <r>   -5.3776    1.0000 </r>
       <r>   -1.1140    0.0000 </r>
       <r>    0.5767    0.0000 </r>
       <r>    1.3752    0.0000 </r>
       <r>    1.7691    0.0000 </r>
      </set>
      <set comment="kpoint 16">
       <r>  -22.0277    1.0000 </r>
       <r>  -17.6368    1.0000 </r>
       <r>  -15.3698    1.0000 </r>
       <r>  -10.1626    1.0000 </r>
       <r>   -8.8302    1.0000 </r>
       <r>   -6.2093    1.0000 </r>
       <r>   -5.8615    1.0000 </r>
       <r>   -5.5421    1.0000 </r>
       <r>   -0.9028    0.0000 </r>
       <r>    0.6163    0.0000 </r>
       <r>    1.4154    0.0000 </r>
       <r>    1.8097    0.0000 </r>
      </set>
      <set comment="kpoint 17">
       <r>  -21.9790    1.0000 </r>
       <r>  -17.9669    1.0000 </r>
       <r>  -14.9654    1.0000 </r>
       <r>  -10.1049    1.0000 </r>
       <r>   -8.7832    1.0000 </r>
       <r>   -6.4200    1.0000 </r>
       <r>   -5.9549    1.0000 </r>
       <r>   -5.7850    1.0000 </r>
       <r>   -0.5826    0.0000 </r>
       <r>    0.6824    0.0000 </r>
       <r>    1.4823    0.0000 </r>
       <r>    1.8775    0.0000 </r>
      </set>
      <set comment="kpoint 18">
       <r>  -21.9108    1.0000 </r>
       <r>  -18.3116    1.0000 </r>
       <r>  -14.5173    1.0000 </r>
       <r>  -10.0241    1.0000 </r>
       <r>   -8.7177    1.0000 </r>
       <r>   -6.7008    1.0000 </r>
       <r>   -6.0812    1.0000 </r>
       <r>   -6.0778    1.0000 </r>
       <r>   -0.1827    0.0000 </r>
       <r>    0.7748    0.0000 </r>
       <r>    1.5760    0.0000 </r>
       <r>    1.9725    0.0000 </r>
      </set>
      <set comment="kpoint 19">
       <r>  -21.8232    1.0000 </r>
       <r>  -18.6544    1.0000 </r>
       <r>  -14.0425    1.0000 </r>
       <r>   -9.9205    1.0000 </r>
       <r>   -8.6341    1.0000 </r>
       <r>   -7.0424    1.0000 </r>
       <r>   -6.3982    1.0000 </r>
       <r>   -6.2347    1.0000 </r>
       <r>    0.2734    0.0000 </r>
       <r>    0.8938    0.0000 </r>
       <r>    1.6963    0.0000 </r>
       <r>    2.0945    0.0000 </r>
      </set>
      <set comment="kpoint 20">
       <r>  -21.7163    1.0000 </r>
       <r>  -18.9881    1.0000 </r>
       <r>  -13.5489    1.0000 </r>
       <r>   -9.7943    1.0000 </r>
       <r>   -8.5329    1.0000 </r>
       <r>   -7.4348    1.0000 </r>
       <r>   -6.7306    1.0000 </r>
       <r>   -6.4093    1.0000 </r>
       <r>    0.7686    0.0000 </r>
       <r>    1.0392    0.0000 </r>
       <r>    1.8433    0.0000 </r>
       <r>    2.2437    0.0000 </r>
      </set>
      <set comment="kpoint 21">
       <r>  -21.5901    1.0000 </r>
       <r>  -19.3092    1.0000 </r>
       <r>  -13.0410    1.0000 </r>
       <r>   -9.6457    1.0000 </r>
       <r>   -8.4148    1.0000 </r>
       <r>   -7.8687    1.0000 </r>
       <r>   -7.0648    1.0000 </r>
       <r>   -6.5991    1.0000 </r>
       <r>    1.2110    0.0000 </r>
       <r>    1.2906    0.0000 </r>
       <r>    2.0168    0.0000 </r>
       <r>    2.4201    0.0000 </r>
      </set>
      <set comment="kpoint 22">
       <r>  -21.4447    1.0000 </r>
       <r>  -19.6156    1.0000 </r>
       <r>  -12.5221    1.0000 </r>
       <r>   -9.4750    1.0000 </r>
       <r>   -8.3353    1.0000 </r>
       <r>   -8.2805    1.0000 </r>
       <r>   -7.3937    1.0000 </r>
       <r>   -6.7985    1.0000 </r>
       <r>    1.4093    0.0000 </r>
       <r>    1.8296    0.0000 </r>
       <r>    2.2166    0.0000 </r>
       <r>    2.6235    0.0000 </r>
      </set>
      <set comment="kpoint 23">
       <r>  -21.2804    1.0000 </r>
       <r>  -19.9062    1.0000 </r>
       <r>  -11.9951    1.0000 </r>
       <r>   -9.2826    1.0000 </r>
       <r>   -8.8272    1.0000 </r>
       <r>   -8.1309    1.0000 </r>
       <r>   -7.7127    1.0000 </r>
       <r>   -7.0027    1.0000 </r>
       <r>    1.6340    0.0000 </r>
       <r>    2.3767    0.0000 </r>
       <r>    2.4424    0.0000 </r>
       <r>    2.8541    0.0000 </r>
      </set>
      <set comment="kpoint 24">
       <r>  -21.0971    1.0000 </r>
       <r>  -20.1799    1.0000 </r>
       <r>  -11.4624    1.0000 </r>
       <r>   -9.3375    1.0000 </r>
       <r>   -9.0691    1.0000 </r>
       <r>   -8.0184    1.0000 </r>
       <r>   -7.9674    1.0000 </r>
       <r>   -7.2074    1.0000 </r>
       <r>    1.8849    0.0000 </r>
       <r>    2.6935    0.0000 </r>
       <r>    2.9186    0.0000 </r>
       <r>    3.1118    0.0000 </r>
      </set>
      <set comment="kpoint 25">
       <r>  -20.8952    1.0000 </r>
       <r>  -20.4363    1.0000 </r>
       <r>  -10.9270    1.0000 </r>
       <r>   -9.8607    1.0000 </r>
       <r>   -8.8350    1.0000 </r>
[...]
       <r>   -9.3559    1.0000 </r>
       <r>   -5.5139    1.0000 </r>
       <r>   -5.5139    1.0000 </r>
       <r>   -0.4927    0.0000 </r>
       <r>   -0.4927    0.0000 </r>
       <r>    4.1403    0.0000 </r>
       <r>    4.1403    0.0000 </r>
      </set>
      <set comment="kpoint 209">
       <r>  -18.6229    1.0000 </r>
       <r>  -16.8064    1.0000 </r>
       <r>  -14.2152    1.0000 </r>
       <r>  -12.5485    1.0000 </r>
       <r>  -12.2989    1.0000 </r>
       <r>  -10.7862    1.0000 </r>
       <r>   -6.2760    1.0000 </r>
       <r>   -4.3991    1.0000 </r>
       <r>   -1.2039    0.0000 </r>
       <r>    0.9552    0.0000 </r>
       <r>    5.3147    0.0000 </r>
       <r>    6.0843    0.0000 </r>
      </set>
      <set comment="kpoint 210">
       <r>  -18.6136    1.0000 </r>
       <r>  -16.7993    1.0000 </r>
       <r>  -14.2822    1.0000 </r>
       <r>  -12.6114    1.0000 </r>
       <r>  -12.2243    1.0000 </r>
       <r>  -10.7257    1.0000 </r>
       <r>   -6.2677    1.0000 </r>
       <r>   -4.4031    1.0000 </r>
       <r>   -1.2102    0.0000 </r>
       <r>    0.9326    0.0000 </r>
       <r>    5.3276    0.0000 </r>
       <r>    6.0995    0.0000 </r>
      </set>
      <set comment="kpoint 211">
       <r>  -18.5860    1.0000 </r>
       <r>  -16.7782    1.0000 </r>
       <r>  -14.4566    1.0000 </r>
       <r>  -12.7778    1.0000 </r>
       <r>  -12.0268    1.0000 </r>
       <r>  -10.5675    1.0000 </r>
       <r>   -6.2429    1.0000 </r>
       <r>   -4.4156    1.0000 </r>
       <r>   -1.2278    0.0000 </r>
       <r>    0.8662    0.0000 </r>
       <r>    5.3661    0.0000 </r>
       <r>    6.1445    0.0000 </r>
      </set>
      <set comment="kpoint 212">
       <r>  -18.5401    1.0000 </r>
       <r>  -16.7446    1.0000 </r>
       <r>  -14.6903    1.0000 </r>
       <r>  -13.0064    1.0000 </r>
       <r>  -11.7546    1.0000 </r>
       <r>  -10.3547    1.0000 </r>
       <r>   -6.2018    1.0000 </r>
       <r>   -4.4378    1.0000 </r>
       <r>   -1.2524    0.0000 </r>
       <r>    0.7605    0.0000 </r>
       <r>    5.4294    0.0000 </r>
       <r>    6.2187    0.0000 </r>
      </set>
      <set comment="kpoint 213">
       <r>  -18.4759    1.0000 </r>
       <r>  -16.7014    1.0000 </r>
       <r>  -14.9465    1.0000 </r>
       <r>  -13.2661    1.0000 </r>
       <r>  -11.4438    1.0000 </r>
       <r>  -10.1215    1.0000 </r>
       <r>   -6.1450    1.0000 </r>
       <r>   -4.4716    1.0000 </r>
       <r>   -1.2778    0.0000 </r>
       <r>    0.6216    0.0000 </r>
       <r>    5.5109    0.0000 </r>
       <r>    5.8744    0.0000 </r>
      </set>
      <set comment="kpoint 214">
       <r>  -18.3937    1.0000 </r>
       <r>  -16.6545    1.0000 </r>
       <r>  -15.1999    1.0000 </r>
       <r>  -13.5388    1.0000 </r>
       <r>  -11.1166    1.0000 </r>
       <r>   -9.8904    1.0000 </r>
       <r>   -6.0730    1.0000 </r>
       <r>   -4.5192    1.0000 </r>
       <r>   -1.2968    0.0000 </r>
       <r>    0.4571    0.0000 </r>
       <r>    5.3541    0.0000 </r>
       <r>    5.6640    0.0000 </r>
      </set>
      <set comment="kpoint 215">
       <r>  -18.2938    1.0000 </r>
       <r>  -16.6163    1.0000 </r>
       <r>  -15.4279    1.0000 </r>
       <r>  -13.8141    1.0000 </r>
       <r>  -10.7875    1.0000 </r>
       <r>   -9.6773    1.0000 </r>
       <r>   -5.9868    1.0000 </r>
       <r>   -4.5824    1.0000 </r>
       <r>   -1.3022    0.0000 </r>
       <r>    0.2744    0.0000 </r>
       <r>    4.9377    0.0000 </r>
       <r>    5.7950    0.0000 </r>
      </set>
      <set comment="kpoint 216">
       <r>  -18.1766    1.0000 </r>
       <r>  -16.6101    1.0000 </r>
       <r>  -15.6012    1.0000 </r>
       <r>  -14.0854    1.0000 </r>
       <r>  -10.4677    1.0000 </r>
       <r>   -9.4945    1.0000 </r>
       <r>   -5.8874    1.0000 </r>
       <r>   -4.6619    1.0000 </r>
       <r>   -1.2879    0.0000 </r>
       <r>    0.0810    0.0000 </r>
       <r>    4.5767    0.0000 </r>
       <r>    5.5366    0.0000 </r>
      </set>
      <set comment="kpoint 217">
       <r>  -18.0425    1.0000 </r>
       <r>  -16.6668    1.0000 </r>
       <r>  -15.6852    1.0000 </r>
       <r>  -14.3484    1.0000 </r>
       <r>  -10.1668    1.0000 </r>
       <r>   -9.3526    1.0000 </r>
       <r>   -5.7763    1.0000 </r>
       <r>   -4.7577    1.0000 </r>
       <r>   -1.2496    0.0000 </r>
       <r>   -0.1166    0.0000 </r>
       <r>    4.2888    0.0000 </r>
       <r>    5.0964    0.0000 </r>
      </set>
      <set comment="kpoint 218">
       <r>  -17.8923    1.0000 </r>
       <r>  -16.7950    1.0000 </r>
       <r>  -15.6690    1.0000 </r>
       <r>  -14.6000    1.0000 </r>
       <r>   -9.8938    1.0000 </r>
       <r>   -9.2599    1.0000 </r>
       <r>   -5.6553    1.0000 </r>
       <r>   -4.8680    1.0000 </r>
       <r>   -1.1849    0.0000 </r>
       <r>   -0.3122    0.0000 </r>
       <r>    4.0828    0.0000 </r>
       <r>    4.7141    0.0000 </r>
      </set>
      <set comment="kpoint 219">
       <r>  -17.7271    1.0000 </r>
       <r>  -16.9698    1.0000 </r>
       <r>  -15.5763    1.0000 </r>
       <r>  -14.8375    1.0000 </r>
       <r>   -9.6575    1.0000 </r>
       <r>   -9.2228    1.0000 </r>
       <r>   -5.5265    1.0000 </r>
       <r>   -4.9902    1.0000 </r>
       <r>   -1.0936    0.0000 </r>
       <r>   -0.5005    0.0000 </r>
       <r>    3.9651    0.0000 </r>
       <r>    4.3991    0.0000 </r>
      </set>
      <set comment="kpoint 220">
       <r>  -17.5485    1.0000 </r>
       <r>  -17.1633    1.0000 </r>
       <r>  -15.4342    1.0000 </r>
       <r>  -15.0581    1.0000 </r>
       <r>   -9.4662    1.0000 </r>
       <r>   -9.2450    1.0000 </r>
       <r>   -5.3925    1.0000 </r>
       <r>   -5.1208    1.0000 </r>
       <r>   -0.9768    0.0000 </r>
       <r>   -0.6768    0.0000 </r>
       <r>    3.9391    0.0000 </r>
       <r>    4.1602    0.0000 </r>
      </set>
      <set comment="kpoint 221">
       <r>  -17.3590    1.0000 </r>
       <r>  -17.3590    1.0000 </r>
       <r>  -15.2586    1.0000 </r>
       <r>  -15.2586    1.0000 </r>
       <r>   -9.3270    1.0000 </r>
       <r>   -9.3270    1.0000 </r>
       <r>   -5.2561    1.0000 </r>
       <r>   -5.2561    1.0000 </r>
       <r>   -0.8368    0.0000 </r>
       <r>   -0.8368    0.0000 </r>
       <r>    4.0050    0.0000 </r>
       <r>    4.0050    0.0000 </r>
      </set>
      <set comment="kpoint 222">
       <r>  -18.1942    1.0000 </r>
       <r>  -17.2822    1.0000 </r>
       <r>  -13.8295    1.0000 </r>
       <r>  -12.9953    1.0000 </r>
       <r>  -11.9517    1.0000 </r>
       <r>  -11.1903    1.0000 </r>
       <r>   -5.8171    1.0000 </r>
       <r>   -4.8729    1.0000 </r>
       <r>   -0.6964    0.0000 </r>
       <r>    0.3854    0.0000 </r>
       <r>    5.9210    0.0000 </r>
       <r>    6.6456    0.0000 </r>
      </set>
      <set comment="kpoint 223">
       <r>  -18.1852    1.0000 </r>
       <r>  -17.2740    1.0000 </r>
       <r>  -13.8968    1.0000 </r>
       <r>  -13.0602    1.0000 </r>
       <r>  -11.8794    1.0000 </r>
       <r>  -11.1253    1.0000 </r>
       <r>   -5.8101    1.0000 </r>
       <r>   -4.8712    1.0000 </r>
       <r>   -0.7097    0.0000 </r>
       <r>    0.3648    0.0000 </r>
       <r>    5.9338    0.0000 </r>
       <r>    6.6617    0.0000 </r>
      </set>
      <set comment="kpoint 224">
       <r>  -18.1581    1.0000 </r>
       <r>  -17.2493    1.0000 </r>
       <r>  -14.0730    1.0000 </r>
       <r>  -13.2310    1.0000 </r>
       <r>  -11.6888    1.0000 </r>
       <r>  -10.9548    1.0000 </r>
       <r>   -5.7892    1.0000 </r>
       <r>   -4.8664    1.0000 </r>
       <r>   -0.7483    0.0000 </r>
       <r>    0.3045    0.0000 </r>
       <r>    5.9721    0.0000 </r>
       <r>    6.7093    0.0000 </r>
      </set>
      <set comment="kpoint 225">
       <r>  -18.1130    1.0000 </r>
       <r>  -17.2086    1.0000 </r>
       <r>  -14.3114    1.0000 </r>
       <r>  -13.4645    1.0000 </r>
       <r>  -11.4277    1.0000 </r>
       <r>  -10.7237    1.0000 </r>
       <r>   -5.7550    1.0000 </r>
       <r>   -4.8596    1.0000 </r>
       <r>   -0.8078    0.0000 </r>
       <r>    0.2088    0.0000 </r>
       <r>    6.0339    0.0000 </r>
       <r>    6.7000    0.0000 </r>
      </set>
      <set comment="kpoint 226">
       <r>  -18.0501    1.0000 </r>
       <r>  -17.1529    1.0000 </r>
       <r>  -14.5773    1.0000 </r>
       <r>  -13.7285    1.0000 </r>
       <r>  -11.1319    1.0000 </r>
       <r>  -10.4670    1.0000 </r>
       <r>   -5.7080    1.0000 </r>
       <r>   -4.8525    1.0000 </r>
       <r>   -0.8817    0.0000 </r>
       <r>    0.0839    0.0000 </r>
       <r>    6.0644    0.0000 </r>
       <r>    6.2025    0.0000 </r>
      </set>
      <set comment="kpoint 227">
       <r>  -17.9698    1.0000 </r>
       <r>  -17.0837    1.0000 </r>
       <r>  -14.8504    1.0000 </r>
       <r>  -14.0044    1.0000 </r>
       <r>  -10.8240    1.0000 </r>
       <r>  -10.2072    1.0000 </r>
       <r>   -5.6493    1.0000 </r>
       <r>   -4.8475    1.0000 </r>
       <r>   -0.9619    0.0000 </r>
       <r>   -0.0626    0.0000 </r>
       <r>    5.6154    0.0000 </r>
       <r>    6.2135    0.0000 </r>
      </set>
      <set comment="kpoint 228">
       <r>  -17.8726    1.0000 </r>
       <r>  -17.0040    1.0000 </r>
       <r>  -15.1173    1.0000 </r>
       <r>  -14.2814    1.0000 </r>
       <r>  -10.5187    1.0000 </r>
       <r>   -9.9599    1.0000 </r>
       <r>   -5.5803    1.0000 </r>
       <r>   -4.8471    1.0000 </r>
       <r>   -1.0398    0.0000 </r>
       <r>   -0.2228    0.0000 </r>
       <r>    5.1574    0.0000 </r>
       <r>    5.7037    0.0000 </r>
      </set>
      <set comment="kpoint 229">
       <r>  -17.7590    1.0000 </r>
       <r>  -16.9195    1.0000 </r>
       <r>  -15.3664    1.0000 </r>
       <r>  -14.5529    1.0000 </r>
       <r>  -10.2275    1.0000 </r>
       <r>   -9.7374    1.0000 </r>
       <r>   -5.5027    1.0000 </r>
       <r>   -4.8546    1.0000 </r>
       <r>   -1.1068    0.0000 </r>
       <r>   -0.3889    0.0000 </r>
       <r>    4.7563    0.0000 </r>
       <r>    5.2392    0.0000 </r>
      </set>
      <set comment="kpoint 230">
       <r>  -17.6301    1.0000 </r>
       <r>  -16.8412    1.0000 </r>
       <r>  -15.5830    1.0000 </r>
       <r>  -14.8141    1.0000 </r>
       <r>   -9.9605    1.0000 </r>
       <r>   -9.5501    1.0000 </r>
       <r>   -5.4188    1.0000 </r>
       <r>   -4.8727    1.0000 </r>
       <r>   -1.1552    0.0000 </r>
       <r>   -0.5535    0.0000 </r>
       <r>    4.4231    0.0000 </r>
       <r>    4.8297    0.0000 </r>
      </set>
      <set comment="kpoint 231">
       <r>  -17.4876    1.0000 </r>
       <r>  -16.7911    1.0000 </r>
       <r>  -15.7430    1.0000 </r>
       <r>  -15.0610    1.0000 </r>
       <r>   -9.7270    1.0000 </r>
       <r>   -9.4073    1.0000 </r>
       <r>   -5.3310    1.0000 </r>
       <r>   -4.9035    1.0000 </r>
       <r>   -1.1788    0.0000 </r>
       <r>   -0.7097    0.0000 </r>
       <r>    4.1669    0.0000 </r>
       <r>    4.4850    0.0000 </r>
      </set>
      <set comment="kpoint 232">
       <r>  -17.3341    1.0000 </r>
       <r>  -16.8005    1.0000 </r>
       <r>  -15.8135    1.0000 </r>
       <r>  -15.2894    1.0000 </r>
       <r>   -9.5358    1.0000 </r>
       <r>   -9.3163    1.0000 </r>
       <r>   -5.2426    1.0000 </r>
       <r>   -4.9483    1.0000 </r>
       <r>   -1.1732    0.0000 </r>
       <r>   -0.8513    0.0000 </r>
       <r>    3.9950    0.0000 </r>
       <r>    4.2139    0.0000 </r>
      </set>
      <set comment="kpoint 233">
       <r>  -17.1746    1.0000 </r>
       <r>  -16.8837    1.0000 </r>
       <r>  -15.7796    1.0000 </r>
       <r>  -15.4934    1.0000 </r>
       <r>   -9.3944    1.0000 </r>
       <r>   -9.2827    1.0000 </r>
       <r>   -5.1567    1.0000 </r>
       <r>   -5.0066    1.0000 </r>
       <r>   -1.1365    0.0000 </r>
       <r>   -0.9726    0.0000 </r>
       <r>    3.9128    0.0000 </r>
       <r>    4.0244    0.0000 </r>
      </set>
      <set comment="kpoint 234">
       <r>  -17.0183    1.0000 </r>
       <r>  -17.0183    1.0000 </r>
       <r>  -15.6630    1.0000 </r>
       <r>  -15.6630    1.0000 </r>
       <r>   -9.3089    1.0000 </r>
       <r>   -9.3089    1.0000 </r>
       <r>   -5.0770    1.0000 </r>
       <r>   -5.0770    1.0000 </r>
       <r>   -1.0689    0.0000 </r>
       <r>   -1.0689    0.0000 </r>
       <r>    3.9229    0.0000 </r>
       <r>    3.9229    0.0000 </r>
      </set>
      <set comment="kpoint 235">
       <r>  -17.7464    1.0000 </r>
       <r>  -17.7464    1.0000 </r>
       <r>  -13.4226    1.0000 </r>
       <r>  -13.4226    1.0000 </r>
       <r>  -11.5803    1.0000 </r>
       <r>  -11.5803    1.0000 </r>
       <r>   -5.3476    1.0000 </r>
       <r>   -5.3476    1.0000 </r>
       <r>   -0.1659    0.0000 </r>
       <r>   -0.1659    0.0000 </r>
       <r>    6.5596    0.0000 </r>
       <r>    6.5596    0.0000 </r>
      </set>
      <set comment="kpoint 236">
       <r>  -17.7376    1.0000 </r>
       <r>  -17.7376    1.0000 </r>
       <r>  -13.4890    1.0000 </r>
       <r>  -13.4890    1.0000 </r>
       <r>  -11.5113    1.0000 </r>
       <r>  -11.5113    1.0000 </r>
       <r>   -5.3426    1.0000 </r>
       <r>   -5.3426    1.0000 </r>
       <r>   -0.1836    0.0000 </r>
       <r>   -0.1836    0.0000 </r>
       <r>    6.5723    0.0000 </r>
       <r>    6.5723    0.0000 </r>
      </set>
      <set comment="kpoint 237">
       <r>  -17.7113    1.0000 </r>
       <r>  -17.7113    1.0000 </r>
       <r>  -13.6634    1.0000 </r>
       <r>  -13.6634    1.0000 </r>
       <r>  -11.3299    1.0000 </r>
       <r>  -11.3299    1.0000 </r>
       <r>   -5.3279    1.0000 </r>
       <r>   -5.3279    1.0000 </r>
       <r>   -0.2353    0.0000 </r>
       <r>   -0.2353    0.0000 </r>
       <r>    6.6099    0.0000 </r>
       <r>    6.6099    0.0000 </r>
      </set>
      <set comment="kpoint 238">
       <r>  -17.6677    1.0000 </r>
       <r>  -17.6677    1.0000 </r>
       <r>  -13.9006    1.0000 </r>
       <r>  -13.9006    1.0000 </r>
       <r>  -11.0826    1.0000 </r>
       <r>  -11.0826    1.0000 </r>
       <r>   -5.3042    1.0000 </r>
       <r>   -5.3042    1.0000 </r>
       <r>   -0.3166    0.0000 </r>
       <r>   -0.3166    0.0000 </r>
       <r>    6.6670    0.0000 </r>
       <r>    6.6670    0.0000 </r>
      </set>
      <set comment="kpoint 239">
       <r>  -17.6072    1.0000 </r>
       <r>  -17.6072    1.0000 </r>
       <r>  -14.1672    1.0000 </r>
       <r>  -14.1672    1.0000 </r>
       <r>  -10.8050    1.0000 </r>
       <r>  -10.8050    1.0000 </r>
       <r>   -5.2725    1.0000 </r>
       <r>   -5.2725    1.0000 </r>
       <r>   -0.4212    0.0000 </r>
       <r>   -0.4212    0.0000 </r>
       <r>    6.4248    0.0000 </r>
       <r>    6.4248    0.0000 </r>
      </set>
      <set comment="kpoint 240">
       <r>  -17.5303    1.0000 </r>
       <r>  -17.5303    1.0000 </r>
       <r>  -14.4442    1.0000 </r>
       <r>  -14.4442    1.0000 </r>
       <r>  -10.5196    1.0000 </r>
       <r>  -10.5196    1.0000 </r>
       <r>   -5.2344    1.0000 </r>
       <r>   -5.2344    1.0000 </r>
       <r>   -0.5413    0.0000 </r>
       <r>   -0.5413    0.0000 </r>
       <r>    5.9007    0.0000 </r>
       <r>    5.9007    0.0000 </r>
      </set>
      <set comment="kpoint 241">
       <r>  -17.4382    1.0000 </r>
       <r>  -17.4382    1.0000 </r>
       <r>  -14.7201    1.0000 </r>
       <r>  -14.7201    1.0000 </r>
       <r>  -10.2416    1.0000 </r>
       <r>  -10.2416    1.0000 </r>
       <r>   -5.1922    1.0000 </r>
       <r>   -5.1922    1.0000 </r>
       <r>   -0.6686    0.0000 </r>
       <r>   -0.6686    0.0000 </r>
       <r>    5.4135    0.0000 </r>
       <r>    5.4135    0.0000 </r>
      </set>
      <set comment="kpoint 242">
       <r>  -17.3323    1.0000 </r>
       <r>  -17.3323    1.0000 </r>
       <r>  -14.9874    1.0000 </r>
       <r>  -14.9874    1.0000 </r>
       <r>   -9.9829    1.0000 </r>
       <r>   -9.9829    1.0000 </r>
       <r>   -5.1483    1.0000 </r>
       <r>   -5.1483    1.0000 </r>
       <r>   -0.7946    0.0000 </r>
       <r>   -0.7946    0.0000 </r>
       <r>    4.9780    0.0000 </r>
       <r>    4.9780    0.0000 </r>
      </set>
      <set comment="kpoint 243">
       <r>  -17.2156    1.0000 </r>
       <r>  -17.2156    1.0000 </r>
       <r>  -15.2397    1.0000 </r>
       <r>  -15.2397    1.0000 </r>
       <r>   -9.7538    1.0000 </r>
       <r>   -9.7538    1.0000 </r>
       <r>   -5.1058    1.0000 </r>
       <r>   -5.1058    1.0000 </r>
       <r>   -0.9112    0.0000 </r>
       <r>   -0.9112    0.0000 </r>
       <r>    4.6043    0.0000 </r>
       <r>    4.6043    0.0000 </r>
      </set>
      <set comment="kpoint 244">
       <r>  -17.0932    1.0000 </r>
       <r>  -17.0932    1.0000 </r>
       <r>  -15.4693    1.0000 </r>
       <r>  -15.4693    1.0000 </r>
       <r>   -9.5639    1.0000 </r>
       <r>   -9.5639    1.0000 </r>
       <r>   -5.0679    1.0000 </r>
       <r>   -5.0679    1.0000 </r>
       <r>   -1.0110    0.0000 </r>
       <r>   -1.0110    0.0000 </r>
       <r>    4.3016    0.0000 </r>
       <r>    4.3016    0.0000 </r>
      </set>
      <set comment="kpoint 245">
       <r>  -16.9754    1.0000 </r>
       <r>  -16.9754    1.0000 </r>
       <r>  -15.6646    1.0000 </r>
       <r>  -15.6646    1.0000 </r>
       <r>   -9.4213    1.0000 </r>
       <r>   -9.4213    1.0000 </r>
       <r>   -5.0379    1.0000 </r>
       <r>   -5.0379    1.0000 </r>
       <r>   -1.0874    0.0000 </r>
       <r>   -1.0874    0.0000 </r>
       <r>    4.0784    0.0000 </r>
       <r>    4.0784    0.0000 </r>
      </set>
      <set comment="kpoint 246">
       <r>  -16.8824    1.0000 </r>
       <r>  -16.8824    1.0000 </r>
       <r>  -15.8045    1.0000 </r>
       <r>  -15.8045    1.0000 </r>
       <r>   -9.3327    1.0000 </r>
       <r>   -9.3327    1.0000 </r>
       <r>   -5.0186    1.0000 </r>
       <r>   -5.0186    1.0000 </r>
       <r>   -1.1355    0.0000 </r>
       <r>   -1.1355    0.0000 </r>
       <r>    3.9415    0.0000 </r>
       <r>    3.9415    0.0000 </r>
      </set>
      <set comment="kpoint 247">
       <r>  -16.8452    1.0000 </r>
       <r>  -16.8452    1.0000 </r>
       <r>  -15.8574    1.0000 </r>
       <r>  -15.8574    1.0000 </r>
       <r>   -9.3027    1.0000 </r>
       <r>   -9.3027    1.0000 </r>
       <r>   -5.0119    1.0000 </r>
       <r>   -5.0119    1.0000 </r>
       <r>   -1.1519    0.0000 </r>
       <r>   -1.1519    0.0000 </r>
       <r>    3.8953    0.0000 </r>
       <r>    3.8953    0.0000 </r>
      </set>
     </set>
    </set>
   </array>
  </eigenvalues>
  <separator name="orbital magnetization" >
   <v name="MAGDIPOLOUT">      0.00000000      0.00000000      0.00000000</v>
  </separator>
 </calculation>
 <structure name="finalpos" >
  <crystal>
   <varray name="basis" >
    <v>       4.38009696       0.00000000       0.00000000 </v>
    <v>       0.00000000       2.45717771       0.00000000 </v>
    <v>       0.00000000       0.00000000      19.58972740 </v>
   </varray>
   <i name="volume">    210.83790140 </i>
   <varray name="rec_basis" >
    <v>       0.22830545       0.00000000       0.00000000 </v>
    <v>       0.00000000       0.40697097       0.00000000 </v>
    <v>       0.00000000       0.00000000       0.05104716 </v>
   </varray>
  </crystal>
  <varray name="positions" >
   <v>       0.99946032       0.00000000      -0.00000000 </v>
   <v>       0.16720635       0.50000000       0.00000000 </v>
   <v>       0.49946032       0.50000000      -0.00000000 </v>
   <v>       0.66720635      -0.00000000       0.00000000 </v>
  </varray>
 </structure>
</modeling>
