gr                                      
           1
     4.380097    0.000000    0.000000
     0.000000    2.457178    0.000000
     0.000000    0.000000   19.589727
   C 
   4
Direct configuration=     1
   0.99945869  0.00000000  0.00000000
   0.16720798  0.50000000  0.00000000
   0.49945869  0.50000000  0.00000000
   0.66720798  0.00000000  0.00000000
Direct configuration=     2
   0.99946632  0.00000000  0.00000000
   0.16720034  0.50000000  0.00000000
   0.49946632  0.50000000  0.00000000
   0.66720034 -0.00000000  0.00000000
Direct configuration=     3
   0.99946032  0.00000000 -0.00000000
   0.16720635  0.50000000  0.00000000
   0.49946032  0.50000000 -0.00000000
   0.66720635 -0.00000000  0.00000000
Direct configuration=     4
   0.99946031  0.00000000 -0.00000000
   0.16720636  0.50000000  0.00000000
   0.49946031  0.50000000 -0.00000000
   0.66720636 -0.00000000  0.00000000
Direct configuration=     5
   0.99946032  0.00000000 -0.00000000
   0.16720635  0.50000000  0.00000000
   0.49946032  0.50000000 -0.00000000
   0.66720635 -0.00000000  0.00000000
